Loading vasp/6.4.3
  Loading requirement: intel/2024.1.0 intel-mpi/2021.12.1
    intel-tbb/2021.9.0-gcc-12.2.0 intel-mkl/2024.1.0
 running   96 mpi-ranks, on    2 nodes
 distrk:  each k-point on   96 cores,    1 groups
 distr:  one band on    1 cores,   96 groups
 vasp.6.4.3 19Mar24 (build Aug 23 2024 11:55:12) complex                        
  
 POSCAR found type information on POSCAR V MoO 
 POSCAR found :  3 types and     384 ions
 scaLAPACK will be used
 -----------------------------------------------------------------------------
|                                                                             |
|           W    W    AA    RRRRR   N    N  II  N    N   GGGG   !!!           |
|           W    W   A  A   R    R  NN   N  II  NN   N  G    G  !!!           |
|           W    W  A    A  R    R  N N  N  II  N N  N  G       !!!           |
|           W WW W  AAAAAA  RRRRR   N  N N  II  N  N N  G  GGG   !            |
|           WW  WW  A    A  R   R   N   NN  II  N   NN  G    G                |
|           W    W  A    A  R    R  N    N  II  N    N   GGGG   !!!           |
|                                                                             |
|     For optimal performance we recommend to set                             |
|       NCORE = 2 up to number-of-cores-per-socket                            |
|     NCORE specifies how many cores store one orbital (NPAR=cpu/NCORE).      |
|     This setting can greatly improve the performance of VASP for DFT.       |
|     The default, NCORE=1 might be grossly inefficient on modern             |
|     multi-core architectures or massively parallel machines. Do your        |
|     own testing! More info at https://www.vasp.at/wiki/index.php/NCORE      |
|     Unfortunately you need to use the default for GW and RPA                |
|     calculations (for HF NCORE is supported but not extensively tested      |
|     yet).                                                                   |
|                                                                             |
 -----------------------------------------------------------------------------

 LDA part: xc-table for (Slater+PW92), standard interpolation
 POSCAR, INCAR and KPOINTS ok, starting setup
 FFT: planning ... GRIDC
 FFT: planning ... GRID_SOFT
 FFT: planning ... GRID
 WAVECAR not read
 entering main loop
       N       E                     dE             d eps       ncg     rms          rms(c)
DAV:   1     0.445403606151E+05    0.44540E+05   -0.15345E+06 62976   0.165E+03
DAV:   2     0.378859570520E+04   -0.40752E+05   -0.38830E+05 61728   0.528E+02
DAV:   3    -0.352594643131E+04   -0.73145E+04   -0.70425E+04 70848   0.209E+02
DAV:   4    -0.396142057669E+04   -0.43547E+03   -0.41603E+03 80448   0.565E+01
DAV:   5    -0.397869352266E+04   -0.17273E+02   -0.16510E+02 82944   0.116E+01    0.377E+02
RMM:   6    -0.311747676372E+04    0.86122E+03   -0.66967E+03 70659   0.723E+01    0.154E+02
RMM:   7    -0.339700571311E+04   -0.27953E+03   -0.94726E+02 61450   0.418E+01    0.249E+02
RMM:   8    -0.309323732192E+04    0.30377E+03   -0.21890E+02 65760   0.132E+01    0.167E+02
RMM:   9    -0.298094632193E+04    0.11229E+03   -0.11664E+02 64962   0.110E+01    0.136E+02
RMM:  10    -0.297531582074E+04    0.56305E+01   -0.99956E+01 64443   0.102E+01    0.106E+02
RMM:  11    -0.301221657525E+04   -0.36901E+02   -0.12894E+02 72836   0.903E+00    0.136E+02
RMM:  12    -0.293101078225E+04    0.81206E+02   -0.83008E+01 71436   0.803E+00    0.876E+01
RMM:  13    -0.291036372953E+04    0.20647E+02   -0.37491E+01 67696   0.577E+00    0.500E+01
RMM:  14    -0.291074068030E+04   -0.37695E+00   -0.14113E+01 64401   0.377E+00    0.397E+01
RMM:  15    -0.290861520801E+04    0.21255E+01   -0.62483E+00 66743   0.236E+00    0.298E+01
RMM:  16    -0.291194576892E+04   -0.33306E+01   -0.35724E+00 70958   0.145E+00    0.272E+01
RMM:  17    -0.291516319201E+04   -0.32174E+01   -0.17286E+00 68870   0.118E+00    0.292E+01
RMM:  18    -0.291702455980E+04   -0.18614E+01   -0.92404E-01 67795   0.908E-01    0.255E+01
RMM:  19    -0.292008667481E+04   -0.30621E+01   -0.15042E+00 76549   0.108E+00    0.235E+01
RMM:  20    -0.292189976303E+04   -0.18131E+01   -0.13287E+00 76379   0.104E+00    0.210E+01
RMM:  21    -0.292449321970E+04   -0.25935E+01   -0.18410E+00 80425   0.127E+00    0.188E+01
RMM:  22    -0.292711832418E+04   -0.26251E+01   -0.33702E+00 93809   0.170E+00    0.161E+01
RMM:  23    -0.292860260638E+04   -0.14843E+01   -0.30611E+00 91395   0.159E+00    0.113E+01
RMM:  24    -0.292941006025E+04   -0.80745E+00   -0.20999E+00 87724   0.128E+00    0.100E+01
RMM:  25    -0.292972192000E+04   -0.31186E+00   -0.85865E-01 75244   0.876E-01    0.696E+00
RMM:  26    -0.292995932240E+04   -0.23740E+00   -0.57919E-01 73112   0.654E-01    0.515E+00
RMM:  27    -0.293015548798E+04   -0.19617E+00   -0.57278E-01 75180   0.640E-01    0.403E+00
RMM:  28    -0.293030715940E+04   -0.15167E+00   -0.25387E-01 71078   0.468E-01    0.262E+00
RMM:  29    -0.293036616554E+04   -0.59006E-01   -0.13452E-01 71388   0.330E-01    0.175E+00
RMM:  30    -0.293038429348E+04   -0.18128E-01   -0.50922E-02 74668   0.189E-01    0.143E+00
RMM:  31    -0.293040492901E+04   -0.20636E-01   -0.24640E-02 71785   0.134E-01    0.122E+00
RMM:  32    -0.293042199267E+04   -0.17064E-01   -0.22918E-02 74055   0.122E-01    0.997E-01
RMM:  33    -0.293043578698E+04   -0.13794E-01   -0.21840E-02 75386   0.115E-01    0.853E-01
RMM:  34    -0.293044394316E+04   -0.81562E-02   -0.11375E-02 75789   0.803E-02    0.742E-01
RMM:  35    -0.293045360475E+04   -0.96616E-02   -0.10169E-02 75517   0.774E-02    0.643E-01
RMM:  36    -0.293046153449E+04   -0.79297E-02   -0.61408E-03 75516   0.586E-02    0.613E-01
RMM:  37    -0.293046613716E+04   -0.46027E-02   -0.24175E-03 74695   0.366E-02    0.609E-01
RMM:  38    -0.293046634515E+04   -0.20799E-03   -0.51764E-04 72267   0.144E-02    0.608E-01
RMM:  39    -0.293046486463E+04    0.14805E-02   -0.12368E-04 56846   0.104E-02    0.602E-01
RMM:  40    -0.293045406295E+04    0.10802E-01   -0.54970E-03 93049   0.588E-02    0.606E-01
RMM:  41    -0.293043316018E+04    0.20903E-01   -0.22602E-02 98883   0.113E-01    0.669E-01
RMM:  42    -0.293042410677E+04    0.90534E-02   -0.10362E-02 93997   0.664E-02    0.692E-01
RMM:  43    -0.293042425606E+04   -0.14929E-03   -0.14072E-03 75492   0.181E-02    0.688E-01
RMM:  44    -0.293042320672E+04    0.10493E-02   -0.38923E-04 64280   0.124E-02    0.689E-01
RMM:  45    -0.293042134418E+04    0.18625E-02   -0.76395E-04 73512   0.176E-02    0.681E-01
RMM:  46    -0.293040942075E+04    0.11923E-01   -0.15942E-02 95987   0.924E-02    0.662E-01
RMM:  47    -0.293039730606E+04    0.12115E-01   -0.28442E-02100824   0.117E-01    0.721E-01
RMM:  48    -0.293041003466E+04   -0.12729E-01   -0.22156E-02 98411   0.123E-01    0.663E-01
RMM:  49    -0.293042683822E+04   -0.16804E-01   -0.93375E-02105090   0.234E-01    0.881E-01
RMM:  50    -0.293043193649E+04   -0.50983E-02   -0.79703E-02102094   0.191E-01    0.130E+00
RMM:  51    -0.293043697639E+04   -0.50399E-02   -0.12184E-02 89393   0.509E-02    0.133E+00
RMM:  52    -0.293044002649E+04   -0.30501E-02   -0.91581E-04 76385   0.161E-02    0.128E+00
RMM:  53    -0.293045297156E+04   -0.12945E-01   -0.61867E-03 94385   0.560E-02    0.118E+00
RMM:  54    -0.293047337120E+04   -0.20400E-01   -0.70902E-03 96793   0.568E-02    0.935E-01
RMM:  55    -0.293049124009E+04   -0.17869E-01   -0.94562E-03 96840   0.681E-02    0.790E-01
RMM:  56    -0.293050466428E+04   -0.13424E-01   -0.55149E-03 96978   0.555E-02    0.642E-01
RMM:  57    -0.293051906780E+04   -0.14404E-01   -0.13607E-02101153   0.918E-02    0.614E-01
RMM:  58    -0.293053481941E+04   -0.15752E-01   -0.25545E-02102302   0.120E-01    0.670E-01
RMM:  59    -0.293054837391E+04   -0.13554E-01   -0.16290E-02 97606   0.978E-02    0.616E-01
RMM:  60    -0.293055821636E+04   -0.98425E-02   -0.82472E-03 93940   0.642E-02
 -----------------------------------------------------------------------------
|                                                                             |
|           W    W    AA    RRRRR   N    N  II  N    N   GGGG   !!!           |
|           W    W   A  A   R    R  NN   N  II  NN   N  G    G  !!!           |
|           W    W  A    A  R    R  N N  N  II  N N  N  G       !!!           |
|           W WW W  AAAAAA  RRRRR   N  N N  II  N  N N  G  GGG   !            |
|           WW  WW  A    A  R   R   N   NN  II  N   NN  G    G                |
|           W    W  A    A  R    R  N    N  II  N    N   GGGG   !!!           |
|                                                                             |
|     The electronic self-consistency was not achieved in the given           |
|     number of steps (NELM). The forces and other quantities evaluated       |
|     might not be reliable so examine the results carefully. If you find     |
|     spurious results, we suggest increasing NELM, if you were close to      |
|     convergence or switching to a different ALGO or adjusting the           |
|     density mixing parameters otherwise.                                    |
|                                                                             |
 -----------------------------------------------------------------------------

   1 F= -.29305582E+04 E0= -.29305582E+04  d E =-.293056E+04  mag=   129.8611
 curvature:   0.00 expect dE= 0.000E+00 dE for cont linesearch  0.000E+00
 trial: gam= 0.00000 g(F)=  0.897E+01 g(S)=  0.492E+02 ort = 0.000E+00 (trialstep = 0.100E+01)
 search vector abs. value=  0.582E+02
 bond charge predicted
       N       E                     dE             d eps       ncg     rms          rms(c)
DAV:   1    -0.328155107783E+04   -0.35100E+03   -0.13700E+04 67488   0.166E+02    0.199E+02
RMM:   2    -0.311945522515E+04    0.16210E+03   -0.18362E+03 61497   0.566E+01    0.160E+02
RMM:   3    -0.296150345856E+04    0.15795E+03   -0.42863E+02 61575   0.240E+01    0.917E+01
RMM:   4    -0.297594062778E+04   -0.14437E+02   -0.30493E+02 63251   0.154E+01    0.115E+02
RMM:   5    -0.302750829079E+04   -0.51568E+02   -0.16916E+02 68368   0.118E+01    0.128E+02
RMM:   6    -0.294454788816E+04    0.82960E+02   -0.52402E+01 63642   0.758E+00    0.744E+01
RMM:   7    -0.292138633706E+04    0.23162E+02   -0.32727E+01 63211   0.575E+00    0.409E+01
RMM:   8    -0.292049723953E+04    0.88910E+00   -0.17419E+01 68070   0.368E+00    0.313E+01
RMM:   9    -0.292239231865E+04   -0.18951E+01   -0.60940E+00 64896   0.241E+00    0.222E+01
RMM:  10    -0.292402060923E+04   -0.16283E+01   -0.24921E+00 66298   0.149E+00    0.176E+01
RMM:  11    -0.292528077165E+04   -0.12602E+01   -0.28346E+00 69195   0.139E+00    0.134E+01
RMM:  12    -0.292588532584E+04   -0.60455E+00   -0.22897E+00 72659   0.122E+00    0.826E+00
RMM:  13    -0.292603314909E+04   -0.14782E+00   -0.14365E+00 73086   0.959E-01    0.490E+00
RMM:  14    -0.292600498698E+04    0.28162E-01   -0.57072E-01 75801   0.578E-01    0.404E+00
RMM:  15    -0.292601523076E+04   -0.10244E-01   -0.18374E-01 77276   0.294E-01    0.744E+00
RMM:  16    -0.292594165374E+04    0.73577E-01   -0.63454E-02 79467   0.192E-01    0.449E+00
RMM:  17    -0.292589851508E+04    0.43139E-01   -0.62441E-02 71564   0.194E-01    0.291E+00
RMM:  18    -0.292586837846E+04    0.30137E-01   -0.46151E-02 74094   0.157E-01    0.223E+00
RMM:  19    -0.292583313282E+04    0.35246E-01   -0.42082E-02 76436   0.143E-01    0.189E+00
RMM:  20    -0.292579960225E+04    0.33531E-01   -0.35472E-02 77923   0.128E-01    0.176E+00
RMM:  21    -0.292576229086E+04    0.37311E-01   -0.47568E-02 83489   0.146E-01    0.170E+00
RMM:  22    -0.292573380514E+04    0.28486E-01   -0.51475E-02 84392   0.145E-01    0.190E+00
RMM:  23    -0.292571946855E+04    0.14337E-01   -0.25855E-02 79509   0.950E-02    0.228E+00
RMM:  24    -0.292572346452E+04   -0.39960E-02   -0.28104E-03 75816   0.430E-02    0.214E+00
RMM:  25    -0.292572185882E+04    0.16057E-02   -0.96363E-03 83784   0.689E-02    0.208E+00
RMM:  26    -0.292572074929E+04    0.11095E-02   -0.29343E-02 90453   0.117E-01    0.209E+00
RMM:  27    -0.292572516222E+04   -0.44129E-02   -0.18066E-02 87746   0.899E-02    0.215E+00
RMM:  28    -0.292572671632E+04   -0.15541E-02   -0.38306E-03 79247   0.345E-02    0.218E+00
RMM:  29    -0.292572207107E+04    0.46452E-02   -0.14064E-02 89189   0.909E-02    0.239E+00
RMM:  30    -0.292570006092E+04    0.22010E-01   -0.17398E-02 89318   0.864E-02    0.295E+00
RMM:  31    -0.292570480531E+04   -0.47444E-02   -0.20572E-03 69039   0.317E-02    0.285E+00
RMM:  32    -0.292571269351E+04   -0.78882E-02   -0.31900E-03 83632   0.428E-02    0.261E+00
RMM:  33    -0.292572419731E+04   -0.11504E-01   -0.10821E-02 92646   0.780E-02    0.231E+00
RMM:  34    -0.292572847982E+04   -0.42825E-02   -0.16249E-02 92491   0.922E-02    0.217E+00
RMM:  35    -0.292572920171E+04   -0.72189E-03   -0.58337E-03 85708   0.436E-02    0.223E+00
RMM:  36    -0.292572870357E+04    0.49814E-03   -0.89549E-04 69745   0.237E-02    0.223E+00
RMM:  37    -0.292572780230E+04    0.90127E-03   -0.53765E-04 67552   0.164E-02    0.225E+00
RMM:  38    -0.292572719128E+04    0.61102E-03   -0.46453E-04 70810   0.139E-02    0.228E+00
RMM:  39    -0.292573260846E+04   -0.54172E-02   -0.23838E-03 84476   0.370E-02    0.217E+00
RMM:  40    -0.292574071852E+04   -0.81101E-02   -0.10280E-02 90812   0.672E-02    0.198E+00
RMM:  41    -0.292575643236E+04   -0.15714E-01   -0.35639E-02 96624   0.124E-01    0.159E+00
RMM:  42    -0.292576394849E+04   -0.75161E-02   -0.17671E-02 93748   0.735E-02    0.157E+00
RMM:  43    -0.292576922045E+04   -0.52720E-02   -0.46031E-03 85950   0.341E-02    0.177E+00
RMM:  44    -0.292576795685E+04    0.12636E-02   -0.84741E-04 78867   0.170E-02    0.167E+00
RMM:  45    -0.292576774320E+04    0.21365E-03   -0.28208E-04 66614   0.765E-03    0.163E+00
RMM:  46    -0.292576712186E+04    0.62134E-03   -0.72143E-05 49116   0.606E-03    0.159E+00
RMM:  47    -0.292576924402E+04   -0.21222E-02   -0.54387E-04 82073   0.171E-02    0.157E+00
RMM:  48    -0.292576837460E+04    0.86941E-03   -0.20310E-04 71457   0.905E-03    0.152E+00
RMM:  49    -0.292576551646E+04    0.28581E-02   -0.12838E-03 83460   0.249E-02    0.134E+00
RMM:  50    -0.292576445794E+04    0.10585E-02   -0.31914E-03 87279   0.366E-02    0.125E+00
RMM:  51    -0.292575889557E+04    0.55624E-02   -0.13418E-02 95509   0.764E-02    0.133E+00
RMM:  52    -0.292574180236E+04    0.17093E-01   -0.31806E-02 98465   0.113E-01    0.204E+00
RMM:  53    -0.292574340825E+04   -0.16059E-02   -0.50957E-03 82079   0.340E-02    0.209E+00
RMM:  54    -0.292574353143E+04   -0.12318E-03   -0.21674E-03 83129   0.263E-02    0.226E+00
RMM:  55    -0.292574409635E+04   -0.56492E-03   -0.53432E-04 74036   0.970E-03    0.225E+00
RMM:  56    -0.292574510386E+04   -0.10075E-02   -0.29443E-04 75008   0.114E-02    0.222E+00
RMM:  57    -0.292575366346E+04   -0.85596E-02   -0.59489E-03 89226   0.580E-02    0.179E+00
RMM:  58    -0.292575321017E+04    0.45329E-03   -0.23549E-03 86106   0.319E-02    0.184E+00
RMM:  59    -0.292575401989E+04   -0.80972E-03   -0.96775E-04 80566   0.159E-02    0.187E+00
RMM:  60    -0.292575447816E+04   -0.45827E-03   -0.14657E-04 58336   0.612E-03
 -----------------------------------------------------------------------------
|                                                                             |
|           W    W    AA    RRRRR   N    N  II  N    N   GGGG   !!!           |
|           W    W   A  A   R    R  NN   N  II  NN   N  G    G  !!!           |
|           W    W  A    A  R    R  N N  N  II  N N  N  G       !!!           |
|           W WW W  AAAAAA  RRRRR   N  N N  II  N  N N  G  GGG   !            |
|           WW  WW  A    A  R   R   N   NN  II  N   NN  G    G                |
|           W    W  A    A  R    R  N    N  II  N    N   GGGG   !!!           |
|                                                                             |
|     The electronic self-consistency was not achieved in the given           |
|     number of steps (NELM). The forces and other quantities evaluated       |
|     might not be reliable so examine the results carefully. If you find     |
|     spurious results, we suggest increasing NELM, if you were close to      |
|     convergence or switching to a different ALGO or adjusting the           |
|     density mixing parameters otherwise.                                    |
|                                                                             |
 -----------------------------------------------------------------------------

   2 F= -.29257545E+04 E0= -.29257545E+04  d E =0.480374E+01  mag=   130.0112
 trial-energy change:    4.803738  1 .order    1.203103  -58.203178   60.609383
 step:   0.4450(harm=  0.4899)  dis= 0.05797  next Energy= -2943.190238 (dE=-0.126E+02)
 bond charge predicted
       N       E                     dE             d eps       ncg     rms          rms(c)
DAV:   1    -0.304003308622E+04   -0.11428E+03   -0.39683E+03 65184   0.945E+01    0.112E+02
RMM:   2    -0.295156092063E+04    0.88472E+02   -0.34960E+02 61477   0.253E+01    0.423E+01
RMM:   3    -0.294436261235E+04    0.71983E+01   -0.17642E+02 61499   0.126E+01    0.298E+01
RMM:   4    -0.294198681088E+04    0.23758E+01   -0.42539E+01 61974   0.818E+00    0.124E+01
RMM:   5    -0.294308840469E+04   -0.11016E+01   -0.13437E+01 76891   0.335E+00    0.659E+00
RMM:   6    -0.294279987055E+04    0.28853E+00   -0.22790E+00 64951   0.146E+00    0.385E+00
RMM:   7    -0.294286624715E+04   -0.66377E-01   -0.10372E+00 63343   0.969E-01    0.284E+00
RMM:   8    -0.294285982926E+04    0.64179E-02   -0.21089E-01 67119   0.479E-01    0.162E+00
RMM:   9    -0.294285332625E+04    0.65030E-02   -0.12932E-01 64247   0.318E-01    0.592E-01
RMM:  10    -0.294285831180E+04   -0.49856E-02   -0.44302E-02 79463   0.153E-01    0.454E-01
RMM:  11    -0.294285966465E+04   -0.13528E-02   -0.79802E-03 84052   0.628E-02    0.349E-01
RMM:  12    -0.294286133595E+04   -0.16713E-02   -0.39321E-03 78002   0.422E-02    0.273E-01
RMM:  13    -0.294286301816E+04   -0.16822E-02   -0.32391E-03 70966   0.408E-02    0.221E-01
RMM:  14    -0.294286462914E+04   -0.16110E-02   -0.27554E-03 73999   0.328E-02    0.192E-01
RMM:  15    -0.294286622192E+04   -0.15928E-02   -0.25589E-03 72015   0.307E-02    0.166E-01
RMM:  16    -0.294286796187E+04   -0.17400E-02   -0.41309E-03 77384   0.399E-02    0.139E-01
RMM:  17    -0.294286937610E+04   -0.14142E-02   -0.50943E-03 80281   0.422E-02    0.115E-01
RMM:  18    -0.294287022330E+04   -0.84721E-03   -0.31001E-03 76960   0.294E-02    0.901E-02
RMM:  19    -0.294287077183E+04   -0.54853E-03   -0.20374E-03 77498   0.252E-02    0.708E-02
RMM:  20    -0.294287111535E+04   -0.34352E-03   -0.14133E-03 74763   0.200E-02    0.572E-02
RMM:  21    -0.294287134672E+04   -0.23137E-03   -0.10803E-03 74049   0.190E-02    0.469E-02
RMM:  22    -0.294287150281E+04   -0.15609E-03   -0.77263E-04 70786   0.151E-02    0.377E-02
RMM:  23    -0.294287159943E+04   -0.96619E-04   -0.42076E-04 65274   0.115E-02    0.317E-02
RMM:  24    -0.294287166779E+04   -0.68362E-04   -0.28680E-04 62662   0.102E-02    0.261E-02
RMM:  25    -0.294287171666E+04   -0.48870E-04   -0.17873E-04 57501   0.837E-03    0.218E-02
RMM:  26    -0.294287175194E+04   -0.35275E-04   -0.11642E-04 52881   0.743E-03    0.187E-02
RMM:  27    -0.294287177565E+04   -0.23712E-04   -0.72857E-05 47756   0.621E-03    0.159E-02
RMM:  28    -0.294287179278E+04   -0.17124E-04   -0.64218E-05 46815   0.595E-03    0.137E-02
RMM:  29    -0.294287180541E+04   -0.12635E-04   -0.53570E-05 45337   0.543E-03    0.119E-02
RMM:  30    -0.294287181544E+04   -0.10025E-04   -0.41358E-05 43310   0.482E-03    0.103E-02
RMM:  31    -0.294287182288E+04   -0.74477E-05   -0.27061E-05 40744   0.400E-03
   3 F= -.29428718E+04 E0= -.29428718E+04  d E =-.123136E+02  mag=   130.0002
 curvature:  -0.24 expect dE=-0.279E+01 dE for cont linesearch -0.530E-02
 trial: gam= 0.21685 g(F)=  0.975E+01 g(S)=  0.175E+01 ort =-0.113E+01 (trialstep = 0.889E+00)
 search vector abs. value=  0.137E+02
 bond charge predicted
       N       E                     dE             d eps       ncg     rms          rms(c)
DAV:   1    -0.292939672475E+04    0.13475E+02   -0.29476E+03 67776   0.942E+01    0.338E+01
RMM:   2    -0.294156159995E+04   -0.12165E+02   -0.24980E+02 61641   0.205E+01    0.295E+01
RMM:   3    -0.294360898487E+04   -0.20474E+01   -0.46884E+01 64050   0.792E+00    0.147E+01
RMM:   4    -0.294295372132E+04    0.65526E+00   -0.15536E+01 63117   0.445E+00    0.125E+01
RMM:   5    -0.294328531932E+04   -0.33160E+00   -0.53733E+00 73411   0.233E+00    0.511E+00
RMM:   6    -0.294325044254E+04    0.34877E-01   -0.79258E-01 67416   0.934E-01    0.408E+00
RMM:   7    -0.294324272310E+04    0.77194E-02   -0.35623E-01 64312   0.624E-01    0.165E+00
RMM:   8    -0.294324660898E+04   -0.38859E-02   -0.98830E-02 71172   0.291E-01    0.106E+00
RMM:   9    -0.294325120450E+04   -0.45955E-02   -0.34125E-02 75205   0.147E-01    0.721E-01
RMM:  10    -0.294325765548E+04   -0.64510E-02   -0.14553E-02 74535   0.970E-02    0.566E-01
RMM:  11    -0.294326329853E+04   -0.56430E-02   -0.10365E-02 69004   0.744E-02    0.403E-01
RMM:  12    -0.294326663488E+04   -0.33364E-02   -0.64719E-03 72981   0.515E-02    0.338E-01
RMM:  13    -0.294327039429E+04   -0.37594E-02   -0.48656E-03 73639   0.457E-02    0.297E-01
RMM:  14    -0.294327649291E+04   -0.60986E-02   -0.15346E-02 79730   0.803E-02    0.239E-01
RMM:  15    -0.294328054941E+04   -0.40565E-02   -0.15947E-02 81981   0.747E-02    0.199E-01
RMM:  16    -0.294328251272E+04   -0.19633E-02   -0.52311E-03 76071   0.361E-02    0.149E-01
RMM:  17    -0.294328374412E+04   -0.12314E-02   -0.33857E-03 75574   0.377E-02    0.110E-01
RMM:  18    -0.294328455429E+04   -0.81018E-03   -0.37165E-03 76352   0.356E-02    0.810E-02
RMM:  19    -0.294328501437E+04   -0.46008E-03   -0.16880E-03 72457   0.216E-02    0.580E-02
RMM:  20    -0.294328520571E+04   -0.19134E-03   -0.62217E-04 68235   0.142E-02    0.437E-02
RMM:  21    -0.294328529998E+04   -0.94270E-04   -0.40983E-04 63743   0.122E-02    0.338E-02
RMM:  22    -0.294328535127E+04   -0.51284E-04   -0.20198E-04 57780   0.837E-03    0.255E-02
RMM:  23    -0.294328537855E+04   -0.27279E-04   -0.73566E-05 46368   0.557E-03    0.199E-02
RMM:  24    -0.294328539591E+04   -0.17360E-04   -0.41437E-05 42045   0.473E-03    0.166E-02
RMM:  25    -0.294328541149E+04   -0.15582E-04   -0.40864E-05 43297   0.444E-03    0.139E-02
RMM:  26    -0.294328542594E+04   -0.14449E-04   -0.45725E-05 43865   0.475E-03    0.122E-02
RMM:  27    -0.294328543445E+04   -0.85103E-05   -0.25039E-05 39651   0.352E-03
   4 F= -.29432854E+04 E0= -.29432854E+04  d E =-.413612E+00  mag=   130.0000
 trial-energy change:   -0.413612  1 .order    0.158590  -10.001855   10.319035
 step:   0.4749(harm=  0.4376)  dis= 0.04328  next Energy= -2945.630740 (dE=-0.276E+01)
 bond charge predicted
       N       E                     dE             d eps       ncg     rms          rms(c)
DAV:   1    -0.294195676136E+04    0.13287E+01   -0.63077E+02 69408   0.441E+01    0.157E+01
RMM:   2    -0.294513168545E+04   -0.31749E+01   -0.59604E+01 61662   0.976E+00    0.146E+01
RMM:   3    -0.294577383841E+04   -0.64215E+00   -0.11821E+01 67535   0.396E+00    0.773E+00
RMM:   4    -0.294560059714E+04    0.17324E+00   -0.35085E+00 62812   0.207E+00    0.730E+00
RMM:   5    -0.294562095728E+04   -0.20360E-01   -0.12457E+00 70613   0.113E+00    0.295E+00
RMM:   6    -0.294563099884E+04   -0.10042E-01   -0.20421E-01 71573   0.442E-01    0.215E+00
RMM:   7    -0.294562625271E+04    0.47461E-02   -0.54586E-02 68242   0.242E-01    0.923E-01
RMM:   8    -0.294562793273E+04   -0.16800E-02   -0.20262E-02 76979   0.122E-01    0.621E-01
RMM:   9    -0.294562892820E+04   -0.99547E-03   -0.54312E-03 81228   0.616E-02    0.422E-01
RMM:  10    -0.294562944723E+04   -0.51903E-03   -0.24578E-03 68743   0.412E-02    0.251E-01
RMM:  11    -0.294562995092E+04   -0.50369E-03   -0.17108E-03 69342   0.314E-02    0.160E-01
RMM:  12    -0.294563038881E+04   -0.43789E-03   -0.86598E-04 76255   0.198E-02    0.131E-01
RMM:  13    -0.294563092338E+04   -0.53457E-03   -0.62228E-04 69135   0.186E-02    0.110E-01
RMM:  14    -0.294563163134E+04   -0.70796E-03   -0.15177E-03 76565   0.273E-02    0.911E-02
RMM:  15    -0.294563213687E+04   -0.50553E-03   -0.15763E-03 77373   0.265E-02    0.800E-02
RMM:  16    -0.294563243379E+04   -0.29692E-03   -0.99353E-04 73781   0.192E-02    0.612E-02
RMM:  17    -0.294563259759E+04   -0.16379E-03   -0.52469E-04 66752   0.134E-02    0.441E-02
RMM:  18    -0.294563269135E+04   -0.93766E-04   -0.34496E-04 64346   0.118E-02    0.325E-02
RMM:  19    -0.294563275063E+04   -0.59276E-04   -0.25606E-04 62037   0.100E-02    0.243E-02
RMM:  20    -0.294563278591E+04   -0.35281E-04   -0.12851E-04 53270   0.696E-03    0.190E-02
RMM:  21    -0.294563280436E+04   -0.18448E-04   -0.59999E-05 46684   0.539E-03    0.150E-02
RMM:  22    -0.294563281510E+04   -0.10737E-04   -0.34038E-05 41891   0.445E-03    0.122E-02
RMM:  23    -0.294563282117E+04   -0.60744E-05   -0.20475E-05 39793   0.344E-03
   5 F= -.29456328E+04 E0= -.29456328E+04  d E =-.276100E+01  mag=   130.0000
 curvature:  -0.27 expect dE=-0.102E+01 dE for cont linesearch -0.933E-04
 trial: gam= 0.29041 g(F)=  0.283E+01 g(S)=  0.102E+01 ort =-0.695E-01 (trialstep = 0.806E+00)
 search vector abs. value=  0.496E+01
 bond charge predicted
       N       E                     dE             d eps       ncg     rms          rms(c)
DAV:   1    -0.293678313265E+04    0.88497E+01   -0.90581E+02 65952   0.513E+01    0.142E+01
RMM:   2    -0.294478805851E+04   -0.80049E+01   -0.90235E+01 61469   0.112E+01    0.125E+01
RMM:   3    -0.294696216449E+04   -0.21741E+01   -0.20057E+01 69916   0.434E+00    0.580E+00
RMM:   4    -0.294706895491E+04   -0.10679E+00   -0.24318E+00 67878   0.167E+00    0.574E+00
RMM:   5    -0.294701279445E+04    0.56160E-01   -0.55859E-01 65342   0.899E-01    0.189E+00
RMM:   6    -0.294704432221E+04   -0.31528E-01   -0.21408E-01 73600   0.400E-01    0.130E+00
RMM:   7    -0.294704959213E+04   -0.52699E-02   -0.45891E-02 77308   0.186E-01    0.690E-01
RMM:   8    -0.294705256689E+04   -0.29748E-02   -0.11435E-02 78164   0.898E-02    0.560E-01
RMM:   9    -0.294705472629E+04   -0.21594E-02   -0.49576E-03 72695   0.605E-02    0.403E-01
RMM:  10    -0.294705710646E+04   -0.23802E-02   -0.40380E-03 73565   0.477E-02    0.261E-01
RMM:  11    -0.294705918944E+04   -0.20830E-02   -0.33769E-03 73764   0.397E-02    0.203E-01
RMM:  12    -0.294706068295E+04   -0.14935E-02   -0.23238E-03 72903   0.320E-02    0.172E-01
RMM:  13    -0.294706239118E+04   -0.17082E-02   -0.38092E-03 76838   0.436E-02    0.151E-01
RMM:  14    -0.294706343291E+04   -0.10417E-02   -0.33116E-03 76478   0.377E-02    0.113E-01
RMM:  15    -0.294706399179E+04   -0.55888E-03   -0.17684E-03 73258   0.260E-02    0.754E-02
RMM:  16    -0.294706425352E+04   -0.26173E-03   -0.82439E-04 70677   0.176E-02    0.498E-02
RMM:  17    -0.294706437650E+04   -0.12298E-03   -0.43715E-04 65781   0.131E-02    0.350E-02
RMM:  18    -0.294706443956E+04   -0.63057E-04   -0.21292E-04 58625   0.901E-03    0.276E-02
RMM:  19    -0.294706447388E+04   -0.34326E-04   -0.10257E-04 50900   0.640E-03    0.221E-02
RMM:  20    -0.294706449832E+04   -0.24436E-04   -0.78166E-05 48283   0.598E-03    0.180E-02
RMM:  21    -0.294706451224E+04   -0.13926E-04   -0.35638E-05 41838   0.416E-03    0.151E-02
RMM:  22    -0.294706452359E+04   -0.11343E-04   -0.23920E-05 40339   0.351E-03    0.132E-02
RMM:  23    -0.294706453528E+04   -0.11696E-04   -0.28809E-05 41373   0.370E-03    0.116E-02
RMM:  24    -0.294706454569E+04   -0.10409E-04   -0.30898E-05 41560   0.366E-03    0.106E-02
RMM:  25    -0.294706455325E+04   -0.75601E-05   -0.22636E-05 39352   0.314E-03
   6 F= -.29470646E+04 E0= -.29470646E+04  d E =-.143173E+01  mag=   130.0000
 trial-energy change:   -1.431732  1 .order   -1.391759   -3.080115    0.296598
 step:   0.7397(harm=  0.7354)  dis= 0.04224  next Energy= -2947.076760 (dE=-0.144E+01)
 bond charge predicted
       N       E                     dE             d eps       ncg     rms          rms(c)
DAV:   1    -0.294700143897E+04    0.63107E-01   -0.61556E+00 68448   0.427E+00    0.117E+00
RMM:   2    -0.294705889344E+04   -0.57454E-01   -0.65001E-01 61500   0.974E-01    0.115E+00
RMM:   3    -0.294707611199E+04   -0.17219E-01   -0.16103E-01 70064   0.386E-01    0.559E-01
RMM:   4    -0.294707737994E+04   -0.12679E-02   -0.20196E-02 67387   0.142E-01    0.546E-01
RMM:   5    -0.294707680892E+04    0.57101E-03   -0.40115E-03 65198   0.768E-02    0.176E-01
RMM:   6    -0.294707708948E+04   -0.28056E-03   -0.15683E-03 70815   0.344E-02    0.108E-01
RMM:   7    -0.294707713222E+04   -0.42735E-04   -0.37865E-04 74228   0.161E-02    0.683E-02
RMM:   8    -0.294707714344E+04   -0.11219E-04   -0.77792E-05 57066   0.778E-03    0.521E-02
RMM:   9    -0.294707715621E+04   -0.12773E-04   -0.45349E-05 47844   0.616E-03    0.340E-02
RMM:  10    -0.294707716546E+04   -0.92511E-05   -0.18096E-05 40039   0.401E-03
   7 F= -.29470772E+04 E0= -.29470772E+04  d E =-.144434E+01  mag=   130.0000
 curvature:  -0.48 expect dE=-0.540E+00 dE for cont linesearch -0.637E-05
 trial: gam= 0.26424 g(F)=  0.106E+01 g(S)=  0.743E-01 ort = 0.815E-02 (trialstep = 0.793E+00)
 search vector abs. value=  0.149E+01
 bond charge predicted
       N       E                     dE             d eps       ncg     rms          rms(c)
DAV:   1    -0.294494075148E+04    0.21364E+01   -0.25173E+02 65856   0.262E+01    0.717E+00
RMM:   2    -0.294690092967E+04   -0.19602E+01   -0.21748E+01 63200   0.574E+00    0.650E+00
RMM:   3    -0.294748065201E+04   -0.57972E+00   -0.51977E+00 73353   0.229E+00    0.341E+00
RMM:   4    -0.294752237802E+04   -0.41726E-01   -0.63169E-01 72355   0.843E-01    0.296E+00
RMM:   5    -0.294750645009E+04    0.15928E-01   -0.13543E-01 66677   0.434E-01    0.938E-01
RMM:   6    -0.294751457086E+04   -0.81208E-02   -0.50032E-02 77951   0.205E-01    0.551E-01
RMM:   7    -0.294751548248E+04   -0.91162E-03   -0.10397E-02 80257   0.829E-02    0.319E-01
RMM:   8    -0.294751583725E+04   -0.35477E-03   -0.21829E-03 84084   0.386E-02    0.262E-01
RMM:   9    -0.294751628680E+04   -0.44954E-03   -0.11926E-03 70528   0.282E-02    0.164E-01
RMM:  10    -0.294751652962E+04   -0.24282E-03   -0.60437E-04 76029   0.177E-02    0.103E-01
RMM:  11    -0.294751673090E+04   -0.20128E-03   -0.27974E-04 65943   0.135E-02    0.764E-02
RMM:  12    -0.294751688385E+04   -0.15295E-03   -0.21977E-04 60892   0.115E-02    0.612E-02
RMM:  13    -0.294751702172E+04   -0.13787E-03   -0.19829E-04 60340   0.109E-02    0.539E-02
RMM:  14    -0.294751716208E+04   -0.14036E-03   -0.31908E-04 66217   0.143E-02    0.471E-02
RMM:  15    -0.294751723260E+04   -0.70523E-04   -0.13009E-04 57483   0.914E-03    0.331E-02
RMM:  16    -0.294751727826E+04   -0.45653E-04   -0.99276E-05 54483   0.827E-03    0.226E-02
RMM:  17    -0.294751730624E+04   -0.27982E-04   -0.82473E-05 51827   0.759E-03    0.168E-02
RMM:  18    -0.294751732041E+04   -0.14175E-04   -0.36151E-05 44476   0.504E-03    0.131E-02
RMM:  19    -0.294751732716E+04   -0.67473E-05   -0.14207E-05 39174   0.343E-03
   8 F= -.29475173E+04 E0= -.29475173E+04  d E =-.440162E+00  mag=   130.0000
 trial-energy change:   -0.440162  1 .order   -0.440693   -0.901592    0.020207
 step:   0.7755(harm=  0.7755)  dis= 0.01998  next Energy= -2947.518080 (dE=-0.441E+00)
 bond charge predicted
       N       E                     dE             d eps       ncg     rms          rms(c)
DAV:   1    -0.294751622376E+04    0.10966E-02   -0.12062E-01 76224   0.577E-01    0.157E-01
RMM:   2    -0.294751720270E+04   -0.97893E-03   -0.10761E-02 63183   0.129E-01    0.140E-01
RMM:   3    -0.294751749617E+04   -0.29347E-03   -0.25941E-03 72496   0.518E-02    0.717E-02
RMM:   4    -0.294751753369E+04   -0.37522E-04   -0.43977E-04 70075   0.196E-02    0.650E-02
RMM:   5    -0.294751752704E+04    0.66505E-05   -0.69132E-05 56213   0.963E-03
   9 F= -.29475175E+04 E0= -.29475175E+04  d E =-.440362E+00  mag=   130.0000
 curvature:  -0.51 expect dE=-0.324E+00 dE for cont linesearch -0.117E-09
 trial: gam= 0.55704 g(F)=  0.567E+00 g(S)=  0.722E-01 ort = 0.185E-04 (trialstep = 0.789E+00)
 search vector abs. value=  0.110E+01
 bond charge predicted
       N       E                     dE             d eps       ncg     rms          rms(c)
DAV:   1    -0.294580870480E+04    0.17088E+01   -0.17761E+02 66240   0.229E+01    0.611E+00
RMM:   2    -0.294720181868E+04   -0.13931E+01   -0.15646E+01 63183   0.502E+00    0.539E+00
RMM:   3    -0.294762094327E+04   -0.41912E+00   -0.39816E+00 73700   0.197E+00    0.287E+00
RMM:   4    -0.294763920682E+04   -0.18264E-01   -0.49142E-01 71371   0.727E-01    0.254E+00
RMM:   5    -0.294762524392E+04    0.13963E-01   -0.10302E-01 65793   0.375E-01    0.772E-01
RMM:   6    -0.294763105169E+04   -0.58078E-02   -0.42194E-02 78146   0.178E-01    0.376E-01
RMM:   7    -0.294763169903E+04   -0.64734E-03   -0.70417E-03 79275   0.691E-02    0.236E-01
RMM:   8    -0.294763181534E+04   -0.11632E-03   -0.17914E-03 75466   0.367E-02    0.192E-01
RMM:   9    -0.294763201431E+04   -0.19897E-03   -0.93026E-04 67900   0.258E-02    0.124E-01
RMM:  10    -0.294763217004E+04   -0.15573E-03   -0.38747E-04 76475   0.151E-02    0.801E-02
RMM:  11    -0.294763229670E+04   -0.12666E-03   -0.17473E-04 61018   0.107E-02    0.612E-02
RMM:  12    -0.294763239332E+04   -0.96615E-04   -0.13704E-04 55708   0.939E-03    0.500E-02
RMM:  13    -0.294763247806E+04   -0.84742E-04   -0.12454E-04 56106   0.867E-03    0.432E-02
RMM:  14    -0.294763256277E+04   -0.84715E-04   -0.16096E-04 58511   0.102E-02    0.364E-02
RMM:  15    -0.294763261964E+04   -0.56867E-04   -0.12967E-04 56548   0.896E-03    0.284E-02
RMM:  16    -0.294763265344E+04   -0.33800E-04   -0.72858E-05 49811   0.673E-03    0.208E-02
RMM:  17    -0.294763267863E+04   -0.25186E-04   -0.68747E-05 49270   0.666E-03    0.155E-02
RMM:  18    -0.294763269384E+04   -0.15215E-04   -0.46068E-05 45265   0.539E-03    0.124E-02
RMM:  19    -0.294763270069E+04   -0.68481E-05   -0.17236E-05 39269   0.342E-03
  10 F= -.29476327E+04 E0= -.29476327E+04  d E =-.115174E+00  mag=   130.0000
 trial-energy change:   -0.115174  1 .order   -0.110934   -0.504561    0.282693
 step:   0.5118(harm=  0.5059)  dis= 0.01093  next Energy= -2947.682231 (dE=-0.165E+00)
 bond charge predicted
       N       E                     dE             d eps       ncg     rms          rms(c)
DAV:   1    -0.294745559755E+04    0.17710E+00   -0.21986E+01 68736   0.804E+00    0.204E+00
RMM:   2    -0.294762928430E+04   -0.17369E+00   -0.19488E+00 63207   0.176E+00    0.197E+00
RMM:   3    -0.294768145860E+04   -0.52174E-01   -0.49550E-01 74376   0.695E-01    0.108E+00
RMM:   4    -0.294768353040E+04   -0.20718E-02   -0.58449E-02 70946   0.248E-01    0.101E+00
RMM:   5    -0.294768122793E+04    0.23025E-02   -0.13127E-02 65540   0.132E-01    0.322E-01
RMM:   6    -0.294768203107E+04   -0.80314E-03   -0.52903E-03 74424   0.643E-02    0.177E-01
RMM:   7    -0.294768213328E+04   -0.10221E-03   -0.11198E-03 79832   0.275E-02    0.113E-01
RMM:   8    -0.294768212153E+04    0.11751E-04   -0.26722E-04 68520   0.146E-02    0.868E-02
RMM:   9    -0.294768213773E+04   -0.16206E-04   -0.15486E-04 61153   0.108E-02    0.496E-02
RMM:  10    -0.294768215130E+04   -0.13562E-04   -0.51355E-05 49754   0.615E-03    0.311E-02
RMM:  11    -0.294768216293E+04   -0.11632E-04   -0.18994E-05 40356   0.448E-03    0.230E-02
RMM:  12    -0.294768217240E+04   -0.94738E-05   -0.14296E-05 39473   0.351E-03
  11 F= -.29476822E+04 E0= -.29476822E+04  d E =-.164645E+00  mag=   130.0000
 curvature:  -0.44 expect dE=-0.115E+00 dE for cont linesearch -0.890E-07
 trial: gam= 0.41241 g(F)=  0.238E+00 g(S)=  0.256E-01 ort =-0.474E-03 (trialstep = 0.734E+00)
 search vector abs. value=  0.450E+00
 bond charge predicted
       N       E                     dE             d eps       ncg     rms          rms(c)
DAV:   1    -0.294733265113E+04    0.34951E+00   -0.62706E+01 64224   0.114E+01    0.324E+00
RMM:   2    -0.294767351507E+04   -0.34086E+00   -0.40133E+00 62900   0.263E+00    0.336E+00
RMM:   3    -0.294777813467E+04   -0.10462E+00   -0.10294E+00 71929   0.105E+00    0.170E+00
RMM:   4    -0.294778879104E+04   -0.10656E-01   -0.16332E-01 72499   0.423E-01    0.169E+00
RMM:   5    -0.294778312908E+04    0.56620E-02   -0.32856E-02 65616   0.224E-01    0.578E-01
RMM:   6    -0.294778512215E+04   -0.19931E-02   -0.13700E-02 74019   0.102E-01    0.364E-01
RMM:   7    -0.294778542829E+04   -0.30615E-03   -0.31560E-03 79719   0.451E-02    0.240E-01
RMM:   8    -0.294778543963E+04   -0.11338E-04   -0.65048E-04 77374   0.221E-02    0.191E-01
RMM:   9    -0.294778546780E+04   -0.28167E-04   -0.29659E-04 71402   0.148E-02    0.122E-01
RMM:  10    -0.294778550276E+04   -0.34964E-04   -0.13396E-04 63503   0.909E-03    0.707E-02
RMM:  11    -0.294778553175E+04   -0.28990E-04   -0.57879E-05 46695   0.666E-03    0.390E-02
RMM:  12    -0.294778555190E+04   -0.20145E-04   -0.37316E-05 43905   0.506E-03    0.279E-02
RMM:  13    -0.294778557046E+04   -0.18558E-04   -0.28209E-05 42297   0.465E-03    0.237E-02
RMM:  14    -0.294778559301E+04   -0.22558E-04   -0.40312E-05 44339   0.482E-03    0.227E-02
RMM:  15    -0.294778561448E+04   -0.21465E-04   -0.52318E-05 46074   0.537E-03    0.212E-02
RMM:  16    -0.294778562948E+04   -0.15006E-04   -0.41961E-05 43709   0.480E-03    0.168E-02
RMM:  17    -0.294778564042E+04   -0.10936E-04   -0.30330E-05 41952   0.407E-03    0.118E-02
RMM:  18    -0.294778564988E+04   -0.94611E-05   -0.33846E-05 43005   0.419E-03
  12 F= -.29477856E+04 E0= -.29477856E+04  d E =-.103477E+00  mag=   130.0000
 trial-energy change:   -0.103477  1 .order   -0.102371   -0.193131   -0.011612
 step:   0.7791(harm=  0.7808)  dis= 0.01505  next Energy= -2947.786008 (dE=-0.104E+00)
 bond charge predicted
       N       E                     dE             d eps       ncg     rms          rms(c)
DAV:   1    -0.294778447119E+04    0.11692E-02   -0.23849E-01 72672   0.705E-01    0.201E-01
RMM:   2    -0.294778572999E+04   -0.12588E-02   -0.14974E-02 63160   0.158E-01    0.205E-01
RMM:   3    -0.294778609213E+04   -0.36214E-03   -0.35816E-03 71745   0.634E-02    0.103E-01
RMM:   4    -0.294778613536E+04   -0.43227E-04   -0.63409E-04 71674   0.258E-02    0.101E-01
RMM:   5    -0.294778611553E+04    0.19827E-04   -0.12338E-04 61043   0.137E-02    0.343E-02
RMM:   6    -0.294778612289E+04   -0.73595E-05   -0.50446E-05 50948   0.633E-03
  13 F= -.29477861E+04 E0= -.29477861E+04  d E =-.103950E+00  mag=   130.0000
 curvature:  -0.67 expect dE=-0.104E+00 dE for cont linesearch -0.127E-06
 trial: gam= 0.58841 g(F)=  0.134E+00 g(S)=  0.224E-01 ort = 0.293E-03 (trialstep = 0.743E+00)
 search vector abs. value=  0.312E+00
 bond charge predicted
       N       E                     dE             d eps       ncg     rms          rms(c)
DAV:   1    -0.294750784706E+04    0.27827E+00   -0.44520E+01 69696   0.104E+01    0.280E+00
RMM:   2    -0.294776765394E+04   -0.25981E+00   -0.30954E+00 63460   0.220E+00    0.295E+00
RMM:   3    -0.294782642686E+04   -0.58773E-01   -0.63331E-01 72702   0.876E-01    0.139E+00
RMM:   4    -0.294783211460E+04   -0.56877E-02   -0.10582E-01 70272   0.353E-01    0.139E+00
RMM:   5    -0.294782837418E+04    0.37404E-02   -0.24223E-02 66298   0.185E-01    0.451E-01
RMM:   6    -0.294782969264E+04   -0.13185E-02   -0.96773E-03 74261   0.848E-02    0.292E-01
RMM:   7    -0.294782989124E+04   -0.19860E-03   -0.21101E-03 81056   0.397E-02    0.196E-01
RMM:   8    -0.294782990492E+04   -0.13684E-04   -0.47801E-04 72164   0.205E-02    0.143E-01
RMM:   9    -0.294782993085E+04   -0.25927E-04   -0.25778E-04 71295   0.136E-02    0.766E-02
RMM:  10    -0.294782995809E+04   -0.27243E-04   -0.85002E-05 57309   0.753E-03    0.490E-02
RMM:  11    -0.294782998573E+04   -0.27643E-04   -0.41111E-05 45602   0.657E-03    0.324E-02
RMM:  12    -0.294783000152E+04   -0.15785E-04   -0.24325E-05 42709   0.440E-03    0.257E-02
RMM:  13    -0.294783002470E+04   -0.23179E-04   -0.27442E-05 42671   0.505E-03    0.231E-02
RMM:  14    -0.294783004565E+04   -0.20949E-04   -0.33956E-05 44287   0.515E-03    0.203E-02
RMM:  15    -0.294783005820E+04   -0.12551E-04   -0.24364E-05 41409   0.465E-03    0.184E-02
RMM:  16    -0.294783006774E+04   -0.95486E-05   -0.24402E-05 41682   0.448E-03
  14 F= -.29478301E+04 E0= -.29478301E+04  d E =-.439449E-01  mag=   130.0000
 trial-energy change:   -0.043945  1 .order   -0.044668   -0.116109    0.026772
 step:   0.6002(harm=  0.6037)  dis= 0.00875  next Energy= -2947.832644 (dE=-0.465E-01)
 bond charge predicted
       N       E                     dE             d eps       ncg     rms          rms(c)
DAV:   1    -0.294782064219E+04    0.94160E-02   -0.16405E+00 70752   0.200E+00    0.537E-01
RMM:   2    -0.294783035769E+04   -0.97155E-02   -0.11587E-01 63381   0.428E-01    0.577E-01
RMM:   3    -0.294783265176E+04   -0.22941E-02   -0.24596E-02 73066   0.171E-01    0.279E-01
RMM:   4    -0.294783288018E+04   -0.22842E-03   -0.40226E-03 70112   0.674E-02    0.277E-01
RMM:   5    -0.294783272298E+04    0.15720E-03   -0.92325E-04 66101   0.361E-02    0.897E-02
RMM:   6    -0.294783276946E+04   -0.46477E-04   -0.37164E-04 70546   0.167E-02    0.592E-02
RMM:   7    -0.294783277510E+04   -0.56406E-05   -0.78845E-05 57910   0.823E-03
  15 F= -.29478328E+04 E0= -.29478328E+04  d E =-.466522E-01  mag=   130.0000
 curvature:  -0.60 expect dE=-0.370E-01 dE for cont linesearch -0.168E-04
 trial: gam= 0.37623 g(F)=  0.605E-01 g(S)=  0.878E-03 ort = 0.295E-02 (trialstep = 0.714E+00)
 search vector abs. value=  0.108E+00
 bond charge predicted
       N       E                     dE             d eps       ncg     rms          rms(c)
DAV:   1    -0.294773074366E+04    0.10203E+00   -0.14624E+01 67872   0.586E+00    0.168E+00
RMM:   2    -0.294782563876E+04   -0.94895E-01   -0.11019E+00 63038   0.128E+00    0.146E+00
RMM:   3    -0.294785223721E+04   -0.26598E-01   -0.26170E-01 72361   0.505E-01    0.769E-01
RMM:   4    -0.294785389291E+04   -0.16557E-02   -0.35603E-02 71297   0.199E-01    0.658E-01
RMM:   5    -0.294785312233E+04    0.77059E-03   -0.74743E-03 66806   0.101E-01    0.228E-01
RMM:   6    -0.294785352442E+04   -0.40209E-03   -0.30226E-03 77710   0.482E-02    0.111E-01
RMM:   7    -0.294785356882E+04   -0.44404E-04   -0.55874E-04 77460   0.206E-02    0.695E-02
RMM:   8    -0.294785358681E+04   -0.17988E-04   -0.13819E-04 67963   0.105E-02    0.546E-02
RMM:   9    -0.294785361146E+04   -0.24650E-04   -0.64487E-05 53570   0.734E-03    0.385E-02
RMM:  10    -0.294785363416E+04   -0.22702E-04   -0.31407E-05 43334   0.539E-03    0.286E-02
RMM:  11    -0.294785365495E+04   -0.20789E-04   -0.24564E-05 42006   0.452E-03    0.243E-02
RMM:  12    -0.294785367050E+04   -0.15545E-04   -0.17176E-05 40279   0.385E-03    0.212E-02
RMM:  13    -0.294785369275E+04   -0.22253E-04   -0.30301E-05 42929   0.484E-03    0.192E-02
RMM:  14    -0.294785371561E+04   -0.22861E-04   -0.51056E-05 46644   0.609E-03    0.161E-02
RMM:  15    -0.294785372869E+04   -0.13076E-04   -0.31420E-05 42675   0.495E-03    0.138E-02
RMM:  16    -0.294785373656E+04   -0.78684E-05   -0.19109E-05 39997   0.380E-03
  16 F= -.29478537E+04 E0= -.29478537E+04  d E =-.209615E-01  mag=   130.0000
 trial-energy change:   -0.020961  1 .order   -0.021701   -0.044675    0.001273
 step:   0.6925(harm=  0.6946)  dis= 0.00546  next Energy= -2947.853756 (dE=-0.210E-01)
 bond charge predicted
       N       E                     dE             d eps       ncg     rms          rms(c)
DAV:   1    -0.294785365170E+04    0.76992E-04   -0.13620E-02 77760   0.179E-01    0.525E-02
RMM:   2    -0.294785374502E+04   -0.93323E-04   -0.10769E-03 63061   0.407E-02    0.459E-02
RMM:   3    -0.294785377486E+04   -0.29843E-04   -0.28293E-04 67362   0.162E-02    0.249E-02
RMM:   4    -0.294785377789E+04   -0.30299E-05   -0.42647E-05 41881   0.668E-03
  17 F= -.29478538E+04 E0= -.29478538E+04  d E =-.210028E-01  mag=   130.0000
 curvature:  -0.59 expect dE=-0.175E-01 dE for cont linesearch -0.227E-05
 trial: gam= 0.48565 g(F)=  0.279E-01 g(S)=  0.160E-02 ort = 0.643E-03 (trialstep = 0.710E+00)
 search vector abs. value=  0.555E-01
 bond charge predicted
       N       E                     dE             d eps       ncg     rms          rms(c)
DAV:   1    -0.294780498283E+04    0.48792E-01   -0.75989E+00 68352   0.411E+00    0.954E-01
RMM:   2    -0.294785274367E+04   -0.47761E-01   -0.51294E-01 65593   0.880E-01    0.951E-01
RMM:   3    -0.294786584078E+04   -0.13097E-01   -0.11992E-01 75568   0.359E-01    0.431E-01
RMM:   4    -0.294786711692E+04   -0.12761E-02   -0.15413E-02 74086   0.128E-01    0.466E-01
RMM:   5    -0.294786672041E+04    0.39650E-03   -0.27881E-03 67641   0.605E-02    0.186E-01
RMM:   6    -0.294786692848E+04   -0.20806E-03   -0.12088E-03 68992   0.312E-02    0.102E-01
RMM:   7    -0.294786698034E+04   -0.51862E-04   -0.33283E-04 76221   0.157E-02    0.692E-02
RMM:   8    -0.294786700473E+04   -0.24392E-04   -0.86200E-05 57956   0.809E-03    0.554E-02
RMM:   9    -0.294786703796E+04   -0.33229E-04   -0.53333E-05 49173   0.712E-03    0.403E-02
RMM:  10    -0.294786706991E+04   -0.31955E-04   -0.37418E-05 46075   0.547E-03    0.313E-02
RMM:  11    -0.294786709804E+04   -0.28127E-04   -0.28500E-05 43155   0.478E-03    0.283E-02
RMM:  12    -0.294786713374E+04   -0.35703E-04   -0.45332E-05 45263   0.588E-03    0.255E-02
RMM:  13    -0.294786717354E+04   -0.39794E-04   -0.79610E-05 50107   0.757E-03    0.231E-02
RMM:  14    -0.294786720625E+04   -0.32717E-04   -0.95442E-05 52178   0.829E-03    0.207E-02
RMM:  15    -0.294786722737E+04   -0.21115E-04   -0.57596E-05 46764   0.644E-03    0.154E-02
RMM:  16    -0.294786724133E+04   -0.13964E-04   -0.42888E-05 44569   0.552E-03    0.119E-02
RMM:  17    -0.294786725083E+04   -0.94968E-05   -0.28682E-05 41853   0.451E-03
  18 F= -.29478673E+04 E0= -.29478673E+04  d E =-.134729E-01  mag=   130.0000
 trial-energy change:   -0.013473  1 .order   -0.013182   -0.021156   -0.005208
 step:   0.9132(harm=  0.9419)  dis= 0.00472  next Energy= -2947.868003 (dE=-0.142E-01)
 bond charge predicted
       N       E                     dE             d eps       ncg     rms          rms(c)
DAV:   1    -0.294786306984E+04    0.41715E-02   -0.62234E-01 69888   0.117E+00    0.274E-01
RMM:   2    -0.294786699470E+04   -0.39249E-02   -0.42199E-02 65654   0.253E-01    0.271E-01
RMM:   3    -0.294786808222E+04   -0.10875E-02   -0.99478E-03 75618   0.103E-01    0.123E-01
RMM:   4    -0.294786818943E+04   -0.10721E-03   -0.12758E-03 73653   0.367E-02    0.133E-01
RMM:   5    -0.294786815890E+04    0.30528E-04   -0.23534E-04 65865   0.175E-02    0.541E-02
RMM:   6    -0.294786817733E+04   -0.18430E-04   -0.10225E-04 59036   0.911E-03    0.304E-02
RMM:   7    -0.294786818182E+04   -0.44894E-05   -0.23141E-05 40837   0.497E-03
  19 F= -.29478682E+04 E0= -.29478682E+04  d E =-.144039E-01  mag=   130.0000
 curvature:  -0.86 expect dE=-0.259E-01 dE for cont linesearch -0.522E-05
 trial: gam= 0.99121 g(F)=  0.281E-01 g(S)=  0.191E-02 ort = 0.579E-03 (trialstep = 0.487E+00)
 search vector abs. value=  0.857E-01
 bond charge predicted
       N       E                     dE             d eps       ncg     rms          rms(c)
DAV:   1    -0.294782878864E+04    0.39389E-01   -0.55833E+00 66816   0.375E+00    0.815E-01
RMM:   2    -0.294786803254E+04   -0.39244E-01   -0.40549E-01 61601   0.778E-01    0.669E-01
RMM:   3    -0.294787862798E+04   -0.10595E-01   -0.90442E-02 70776   0.305E-01    0.316E-01
RMM:   4    -0.294787964713E+04   -0.10192E-02   -0.11251E-02 72826   0.111E-01    0.341E-01
RMM:   5    -0.294787951300E+04    0.13413E-03   -0.18129E-03 69919   0.481E-02    0.152E-01
RMM:   6    -0.294787968201E+04   -0.16900E-03   -0.74187E-04 67978   0.257E-02    0.797E-02
RMM:   7    -0.294787973928E+04   -0.57275E-04   -0.21334E-04 73018   0.125E-02    0.571E-02
RMM:   8    -0.294787977529E+04   -0.36006E-04   -0.54989E-05 50913   0.697E-03    0.501E-02
RMM:   9    -0.294787983389E+04   -0.58606E-04   -0.61647E-05 49359   0.741E-03    0.396E-02
RMM:  10    -0.294787989432E+04   -0.60428E-04   -0.71731E-05 50401   0.730E-03    0.342E-02
RMM:  11    -0.294787994429E+04   -0.49968E-04   -0.64465E-05 49151   0.714E-03    0.308E-02
RMM:  12    -0.294787999646E+04   -0.52173E-04   -0.96317E-05 53430   0.860E-03    0.262E-02
RMM:  13    -0.294788004363E+04   -0.47168E-04   -0.13062E-04 57505   0.991E-03    0.219E-02
RMM:  14    -0.294788007578E+04   -0.32149E-04   -0.99016E-05 51914   0.855E-03    0.177E-02
RMM:  15    -0.294788009489E+04   -0.19106E-04   -0.49900E-05 46090   0.608E-03    0.136E-02
RMM:  16    -0.294788010658E+04   -0.11693E-04   -0.33487E-05 43104   0.501E-03    0.112E-02
RMM:  17    -0.294788011486E+04   -0.82848E-05   -0.25666E-05 41280   0.422E-03
  20 F= -.29478801E+04 E0= -.29478801E+04  d E =-.119330E-01  mag=   130.0000
 trial-energy change:   -0.011933  1 .order   -0.011766   -0.014861   -0.008671
 step:   0.9981(harm=  1.1681)  dis= 0.00761  next Energy= -2947.884866 (dE=-0.167E-01)
 bond charge predicted
       N       E                     dE             d eps       ncg     rms          rms(c)
DAV:   1    -0.294782969107E+04    0.50416E-01   -0.61724E+00 66720   0.394E+00    0.854E-01
RMM:   2    -0.294787287977E+04   -0.43189E-01   -0.44665E-01 61605   0.814E-01    0.706E-01
RMM:   3    -0.294788429772E+04   -0.11418E-01   -0.97360E-02 70835   0.318E-01    0.332E-01
RMM:   4    -0.294788538290E+04   -0.10852E-02   -0.12255E-02 72661   0.116E-01    0.360E-01
RMM:   5    -0.294788520655E+04    0.17635E-03   -0.19770E-03 69638   0.506E-02    0.156E-01
RMM:   6    -0.294788536794E+04   -0.16139E-03   -0.80328E-04 68290   0.267E-02    0.787E-02
RMM:   7    -0.294788541628E+04   -0.48331E-04   -0.22128E-04 73063   0.129E-02    0.539E-02
RMM:   8    -0.294788544117E+04   -0.24893E-04   -0.53561E-05 50967   0.678E-03    0.463E-02
RMM:   9    -0.294788548089E+04   -0.39721E-04   -0.46843E-05 46799   0.656E-03    0.353E-02
RMM:  10    -0.294788552183E+04   -0.40940E-04   -0.46601E-05 46955   0.607E-03    0.297E-02
RMM:  11    -0.294788555430E+04   -0.32467E-04   -0.38797E-05 45671   0.556E-03    0.267E-02
RMM:  12    -0.294788559151E+04   -0.37212E-04   -0.60673E-05 48058   0.689E-03    0.234E-02
RMM:  13    -0.294788562739E+04   -0.35885E-04   -0.90765E-05 52106   0.824E-03    0.196E-02
RMM:  14    -0.294788565317E+04   -0.25779E-04   -0.82243E-05 50005   0.783E-03    0.162E-02
RMM:  15    -0.294788566838E+04   -0.15204E-04   -0.40078E-05 44496   0.549E-03    0.122E-02
RMM:  16    -0.294788567799E+04   -0.96099E-05   -0.29145E-05 42175   0.464E-03
  21 F= -.29478857E+04 E0= -.29478857E+04  d E =-.174962E-01  mag=   130.0000
 curvature:  -1.54 expect dE=-0.495E-01 dE for cont linesearch -0.249E-03
 trial: gam= 1.00620 g(F)=  0.288E-01 g(S)=  0.346E-02 ort = 0.372E-02 (trialstep = 0.399E+00)
 search vector abs. value=  0.126E+00
 bond charge predicted
       N       E                     dE             d eps       ncg     rms          rms(c)
DAV:   1    -0.294783816903E+04    0.47499E-01   -0.54743E+00 65568   0.392E+00    0.864E-01
RMM:   2    -0.294788270628E+04   -0.44537E-01   -0.46000E-01 61950   0.826E-01    0.594E-01
RMM:   3    -0.294789536946E+04   -0.12663E-01   -0.10781E-01 72008   0.326E-01    0.308E-01
RMM:   4    -0.294789659739E+04   -0.12279E-02   -0.13423E-02 74791   0.117E-01    0.294E-01
RMM:   5    -0.294789655487E+04    0.42522E-04   -0.17753E-03 70987   0.469E-02    0.145E-01
RMM:   6    -0.294789670045E+04   -0.14558E-03   -0.66288E-04 67271   0.255E-02    0.737E-02
RMM:   7    -0.294789675670E+04   -0.56256E-04   -0.21067E-04 72693   0.129E-02    0.507E-02
RMM:   8    -0.294789679031E+04   -0.33612E-04   -0.53665E-05 50934   0.681E-03    0.446E-02
RMM:   9    -0.294789684268E+04   -0.52368E-04   -0.49309E-05 47228   0.696E-03    0.380E-02
RMM:  10    -0.294789690105E+04   -0.58366E-04   -0.66538E-05 49583   0.727E-03    0.328E-02
RMM:  11    -0.294789695087E+04   -0.49818E-04   -0.67490E-05 49712   0.743E-03    0.285E-02
RMM:  12    -0.294789699651E+04   -0.45649E-04   -0.87134E-05 52786   0.841E-03    0.235E-02
RMM:  13    -0.294789703505E+04   -0.38533E-04   -0.11509E-04 56580   0.960E-03    0.186E-02
RMM:  14    -0.294789705896E+04   -0.23907E-04   -0.72375E-05 49648   0.767E-03    0.145E-02
RMM:  15    -0.294789707168E+04   -0.12728E-04   -0.29304E-05 42848   0.503E-03    0.116E-02
RMM:  16    -0.294789707835E+04   -0.66683E-05   -0.15367E-05 39368   0.371E-03
  22 F= -.29478971E+04 E0= -.29478971E+04  d E =-.114004E-01  mag=   130.0000
 trial-energy change:   -0.011400  1 .order   -0.011292   -0.014356   -0.008228
 step:   0.8371(harm=  0.9345)  dis= 0.01032  next Energy= -2947.901739 (dE=-0.161E-01)
 bond charge predicted
       N       E                     dE             d eps       ncg     rms          rms(c)
DAV:   1    -0.294783170180E+04    0.65370E-01   -0.66051E+00 65280   0.430E+00    0.947E-01
RMM:   2    -0.294788535739E+04   -0.53656E-01   -0.55441E-01 61968   0.904E-01    0.652E-01
RMM:   3    -0.294790044412E+04   -0.15087E-01   -0.12839E-01 72078   0.358E-01    0.337E-01
RMM:   4    -0.294790188180E+04   -0.14377E-02   -0.15862E-02 74728   0.128E-01    0.322E-01
RMM:   5    -0.294790182707E+04    0.54722E-04   -0.21486E-03 70944   0.517E-02    0.158E-01
RMM:   6    -0.294790199747E+04   -0.17040E-03   -0.79397E-04 67582   0.279E-02    0.794E-02
RMM:   7    -0.294790206162E+04   -0.64146E-04   -0.25126E-04 73603   0.140E-02    0.540E-02
RMM:   8    -0.294790209860E+04   -0.36979E-04   -0.63293E-05 53965   0.729E-03    0.471E-02
RMM:   9    -0.294790215633E+04   -0.57731E-04   -0.55833E-05 48708   0.743E-03    0.399E-02
RMM:  10    -0.294790221918E+04   -0.62847E-04   -0.71933E-05 50765   0.754E-03    0.342E-02
RMM:  11    -0.294790227124E+04   -0.52059E-04   -0.68872E-05 50225   0.753E-03    0.297E-02
RMM:  12    -0.294790231863E+04   -0.47395E-04   -0.87626E-05 53122   0.850E-03    0.243E-02
RMM:  13    -0.294790235861E+04   -0.39976E-04   -0.11594E-04 56947   0.973E-03    0.190E-02
RMM:  14    -0.294790238311E+04   -0.24505E-04   -0.75038E-05 50209   0.791E-03    0.148E-02
RMM:  15    -0.294790239579E+04   -0.12678E-04   -0.27705E-05 42578   0.499E-03    0.117E-02
RMM:  16    -0.294790240213E+04   -0.63432E-05   -0.14409E-05 39174   0.364E-03
  23 F= -.29479024E+04 E0= -.29479024E+04  d E =-.167241E-01  mag=   130.0000
 curvature:  -1.59 expect dE=-0.487E-01 dE for cont linesearch -0.138E-03
 trial: gam= 1.01300 g(F)=  0.278E-01 g(S)=  0.287E-02 ort = 0.331E-02 (trialstep = 0.368E+00)
 search vector abs. value=  0.167E+00
 bond charge predicted
       N       E                     dE             d eps       ncg     rms          rms(c)
DAV:   1    -0.294784274024E+04    0.59656E-01   -0.60838E+00 65184   0.410E+00    0.938E-01
RMM:   2    -0.294789550836E+04   -0.52768E-01   -0.54352E-01 61846   0.877E-01    0.678E-01
RMM:   3    -0.294791056720E+04   -0.15059E-01   -0.12977E-01 71078   0.347E-01    0.335E-01
RMM:   4    -0.294791200712E+04   -0.14399E-02   -0.16191E-02 74788   0.129E-01    0.329E-01
RMM:   5    -0.294791192001E+04    0.87110E-04   -0.19991E-03 70064   0.511E-02    0.159E-01
RMM:   6    -0.294791212297E+04   -0.20297E-03   -0.85433E-04 67211   0.284E-02    0.849E-02
RMM:   7    -0.294791219633E+04   -0.73353E-04   -0.26154E-04 74454   0.143E-02    0.633E-02
RMM:   8    -0.294791225484E+04   -0.58511E-04   -0.69195E-05 54628   0.792E-03    0.560E-02
RMM:   9    -0.294791235176E+04   -0.96921E-04   -0.92099E-05 54077   0.923E-03    0.466E-02
RMM:  10    -0.294791244217E+04   -0.90410E-04   -0.10705E-04 56441   0.900E-03    0.397E-02
RMM:  11    -0.294791253262E+04   -0.90452E-04   -0.15106E-04 60020   0.109E-02    0.339E-02
RMM:  12    -0.294791259695E+04   -0.64330E-04   -0.13031E-04 58403   0.103E-02    0.266E-02
RMM:  13    -0.294791264497E+04   -0.48020E-04   -0.14748E-04 60327   0.109E-02    0.213E-02
RMM:  14    -0.294791267252E+04   -0.27550E-04   -0.78308E-05 51305   0.804E-03    0.161E-02
RMM:  15    -0.294791268644E+04   -0.13915E-04   -0.30452E-05 43076   0.513E-03    0.127E-02
RMM:  16    -0.294791269390E+04   -0.74651E-05   -0.16084E-05 39623   0.382E-03
  24 F= -.29479127E+04 E0= -.29479127E+04  d E =-.102918E-01  mag=   130.0000
 trial-energy change:   -0.010292  1 .order   -0.010302   -0.012522   -0.008082
 step:   1.0384(harm=  1.0384)  dis= 0.01699  next Energy= -2947.920061 (dE=-0.177E-01)
 bond charge predicted
       N       E                     dE             d eps       ncg     rms          rms(c)
DAV:   1    -0.294768834939E+04    0.22434E+00   -0.20166E+01 65184   0.747E+00    0.172E+00
RMM:   2    -0.294786311678E+04   -0.17477E+00   -0.18017E+00 61827   0.160E+00    0.123E+00
RMM:   3    -0.294791318697E+04   -0.50070E-01   -0.43179E-01 71080   0.633E-01    0.611E-01
RMM:   4    -0.294791780870E+04   -0.46217E-02   -0.52544E-02 74908   0.234E-01    0.595E-01
RMM:   5    -0.294791749980E+04    0.30890E-03   -0.66320E-03 70080   0.933E-02    0.286E-01
RMM:   6    -0.294791813358E+04   -0.63378E-03   -0.28027E-03 68261   0.514E-02    0.150E-01
RMM:   7    -0.294791835450E+04   -0.22092E-03   -0.85133E-04 77577   0.253E-02    0.110E-01
RMM:   8    -0.294791852558E+04   -0.17108E-03   -0.21426E-04 68910   0.135E-02    0.966E-02
RMM:   9    -0.294791880291E+04   -0.27733E-03   -0.26968E-04 62614   0.152E-02    0.796E-02
RMM:  10    -0.294791905283E+04   -0.24992E-03   -0.29362E-04 63049   0.147E-02    0.669E-02
RMM:  11    -0.294791930288E+04   -0.25005E-03   -0.41280E-04 68514   0.179E-02    0.568E-02
RMM:  12    -0.294791947050E+04   -0.16762E-03   -0.31669E-04 68288   0.156E-02    0.442E-02
RMM:  13    -0.294791959520E+04   -0.12471E-03   -0.34884E-04 70273   0.165E-02    0.351E-02
RMM:  14    -0.294791966505E+04   -0.69851E-04   -0.18418E-04 62295   0.117E-02    0.261E-02
RMM:  15    -0.294791970018E+04   -0.35128E-04   -0.66458E-05 51787   0.715E-03    0.201E-02
RMM:  16    -0.294791972031E+04   -0.20125E-04   -0.43551E-05 46480   0.572E-03    0.166E-02
RMM:  17    -0.294791973585E+04   -0.15547E-04   -0.41258E-05 46203   0.577E-03    0.140E-02
RMM:  18    -0.294791974558E+04   -0.97305E-05   -0.25524E-05 41663   0.455E-03
  25 F= -.29479197E+04 E0= -.29479197E+04  d E =-.173435E-01  mag=   130.0000
 curvature:  -2.55 expect dE=-0.130E+00 dE for cont linesearch -0.232E-04
 trial: gam= 1.70512 g(F)=  0.463E-01 g(S)=  0.477E-02 ort =-0.123E-02 (trialstep = 0.158E+00)
 search vector abs. value=  0.533E+00
 bond charge predicted
       N       E                     dE             d eps       ncg     rms          rms(c)
DAV:   1    -0.294788301858E+04    0.36717E-01   -0.35938E+00 67296   0.329E+00    0.768E-01
RMM:   2    -0.294791661353E+04   -0.33595E-01   -0.34560E-01 61610   0.677E-01    0.466E-01
RMM:   3    -0.294792569078E+04   -0.90773E-02   -0.77241E-02 70490   0.264E-01    0.251E-01
RMM:   4    -0.294792650693E+04   -0.81615E-03   -0.89888E-03 74455   0.961E-02    0.213E-01
RMM:   5    -0.294792652114E+04   -0.14216E-04   -0.11490E-03 70463   0.379E-02    0.114E-01
RMM:   6    -0.294792662369E+04   -0.10255E-03   -0.43175E-04 67296   0.208E-02    0.632E-02
RMM:   7    -0.294792667532E+04   -0.51628E-04   -0.15101E-04 68058   0.108E-02    0.465E-02
RMM:   8    -0.294792671624E+04   -0.40916E-04   -0.39882E-05 46222   0.654E-03    0.417E-02
RMM:   9    -0.294792677258E+04   -0.56344E-04   -0.52682E-05 48008   0.693E-03    0.365E-02
RMM:  10    -0.294792682431E+04   -0.51733E-04   -0.60693E-05 48860   0.704E-03    0.306E-02
RMM:  11    -0.294792687903E+04   -0.54714E-04   -0.10075E-04 54604   0.916E-03    0.245E-02
RMM:  12    -0.294792691866E+04   -0.39632E-04   -0.10362E-04 55399   0.924E-03    0.186E-02
RMM:  13    -0.294792694189E+04   -0.23226E-04   -0.66892E-05 49420   0.752E-03    0.148E-02
RMM:  14    -0.294792695443E+04   -0.12547E-04   -0.34434E-05 44385   0.540E-03    0.118E-02
RMM:  15    -0.294792696101E+04   -0.65815E-05   -0.16993E-05 39639   0.401E-03
  26 F= -.29479270E+04 E0= -.29479270E+04  d E =-.721543E-02  mag=   130.0000
 ZBRENT: can't locate minimum, use default step
 trial-energy change:   -0.007215  1 .order   -0.006999   -0.007717   -0.006282
 step:   0.6302(harm=  0.8475)  dis= 0.01906  next Energy= -2947.940501 (dE=-0.208E-01)
 bond charge predicted
       N       E                     dE             d eps       ncg     rms          rms(c)
DAV:   1    -0.294753999524E+04    0.38696E+00   -0.32316E+01 66048   0.988E+00    0.234E+00
RMM:   2    -0.294784402539E+04   -0.30403E+00   -0.31262E+00 61606   0.205E+00    0.139E+00
RMM:   3    -0.294792763634E+04   -0.83611E-01   -0.71240E-01 70139   0.799E-01    0.761E-01
RMM:   4    -0.294793554165E+04   -0.79053E-02   -0.86759E-02 74853   0.298E-01    0.637E-01
RMM:   5    -0.294793564271E+04   -0.10106E-03   -0.10436E-02 70765   0.115E-01    0.348E-01
RMM:   6    -0.294793649335E+04   -0.85065E-03   -0.39461E-03 68970   0.626E-02    0.182E-01
RMM:   7    -0.294793692037E+04   -0.42702E-03   -0.13458E-03 78140   0.310E-02    0.133E-01
RMM:   8    -0.294793722465E+04   -0.30428E-03   -0.32926E-04 70173   0.170E-02    0.117E-01
RMM:   9    -0.294793767579E+04   -0.45114E-03   -0.41505E-04 64606   0.192E-02    0.100E-01
RMM:  10    -0.294793808293E+04   -0.40714E-03   -0.51357E-04 67182   0.195E-02    0.821E-02
RMM:  11    -0.294793846703E+04   -0.38410E-03   -0.69550E-04 71887   0.235E-02    0.647E-02
RMM:  12    -0.294793871068E+04   -0.24365E-03   -0.53936E-04 71872   0.204E-02    0.490E-02
RMM:  13    -0.294793884809E+04   -0.13741E-03   -0.32941E-04 68403   0.157E-02    0.377E-02
RMM:  14    -0.294793892374E+04   -0.75652E-04   -0.17886E-04 61432   0.115E-02    0.284E-02
RMM:  15    -0.294793896345E+04   -0.39709E-04   -0.82347E-05 53857   0.796E-03    0.228E-02
RMM:  16    -0.294793898920E+04   -0.25745E-04   -0.52754E-05 48509   0.633E-03    0.192E-02
RMM:  17    -0.294793901002E+04   -0.20822E-04   -0.52748E-05 48216   0.636E-03    0.157E-02
RMM:  18    -0.294793902445E+04   -0.14434E-04   -0.41268E-05 45569   0.568E-03    0.123E-02
RMM:  19    -0.294793903366E+04   -0.92047E-05   -0.27357E-05 42078   0.465E-03
  27 F= -.29479390E+04 E0= -.29479390E+04  d E =-.192881E-01  mag=   130.0000
 curvature:  -4.15 expect dE=-0.157E+00 dE for cont linesearch -0.421E-03
 trial: gam= 0.17498 g(F)=  0.368E-01 g(S)=  0.102E-02 ort = 0.735E-02 (trialstep = 0.252E+00)
 search vector abs. value=  0.567E-01
 bond charge predicted
       N       E                     dE             d eps       ncg     rms          rms(c)
DAV:   1    -0.294793383909E+04    0.51854E-02   -0.98147E-01 69408   0.185E+00    0.439E-01
RMM:   2    -0.294794463646E+04   -0.10797E-01   -0.11344E-01 62277   0.398E-01    0.398E-01
RMM:   3    -0.294794758379E+04   -0.29473E-02   -0.26261E-02 72762   0.156E-01    0.183E-01
RMM:   4    -0.294794785554E+04   -0.27175E-03   -0.28741E-03 71838   0.550E-02    0.196E-01
RMM:   5    -0.294794781311E+04    0.42431E-04   -0.48714E-04 64761   0.269E-02    0.736E-02
RMM:   6    -0.294794786382E+04   -0.50715E-04   -0.20805E-04 65002   0.132E-02    0.448E-02
RMM:   7    -0.294794787805E+04   -0.14228E-04   -0.54489E-05 49890   0.691E-03    0.310E-02
RMM:   8    -0.294794788901E+04   -0.10959E-04   -0.15661E-05 39047   0.431E-03    0.277E-02
RMM:   9    -0.294794790176E+04   -0.12749E-04   -0.12791E-05 39015   0.365E-03    0.222E-02
RMM:  10    -0.294794791662E+04   -0.14866E-04   -0.14414E-05 39297   0.369E-03    0.185E-02
RMM:  11    -0.294794793334E+04   -0.16718E-04   -0.23891E-05 41422   0.454E-03    0.159E-02
RMM:  12    -0.294794794546E+04   -0.12116E-04   -0.23259E-05 41433   0.442E-03    0.141E-02
RMM:  13    -0.294794795475E+04   -0.92923E-05   -0.26738E-05 42216   0.471E-03
  28 F= -.29479480E+04 E0= -.29479480E+04  d E =-.892109E-02  mag=   130.0000
 trial-energy change:   -0.008921  1 .order   -0.008701   -0.009865   -0.007538
 step:   0.5996(harm=  1.0686)  dis= 0.00410  next Energy= -2947.953728 (dE=-0.147E-01)
 bond charge predicted
       N       E                     dE             d eps       ncg     rms          rms(c)
DAV:   1    -0.294793023450E+04    0.17711E-01   -0.18730E+00 67680   0.255E+00    0.604E-01
RMM:   2    -0.294795048632E+04   -0.20252E-01   -0.21269E-01 62382   0.543E-01    0.546E-01
RMM:   3    -0.294795579488E+04   -0.53086E-02   -0.47313E-02 72827   0.213E-01    0.251E-01
RMM:   4    -0.294795630833E+04   -0.51345E-03   -0.54124E-03 71724   0.758E-02    0.268E-01
RMM:   5    -0.294795623005E+04    0.78282E-04   -0.90974E-04 64513   0.369E-02    0.999E-02
RMM:   6    -0.294795632680E+04   -0.96753E-04   -0.39262E-04 67981   0.181E-02    0.616E-02
RMM:   7    -0.294795635551E+04   -0.28713E-04   -0.10838E-04 61074   0.918E-03    0.427E-02
RMM:   8    -0.294795637679E+04   -0.21277E-04   -0.26604E-05 41452   0.551E-03    0.384E-02
RMM:   9    -0.294795640599E+04   -0.29197E-04   -0.27953E-05 42405   0.516E-03    0.304E-02
RMM:  10    -0.294795643175E+04   -0.25765E-04   -0.24137E-05 41763   0.476E-03    0.249E-02
RMM:  11    -0.294795646390E+04   -0.32148E-04   -0.46378E-05 47359   0.629E-03    0.212E-02
RMM:  12    -0.294795648785E+04   -0.23949E-04   -0.50265E-05 47873   0.674E-03    0.190E-02
RMM:  13    -0.294795650175E+04   -0.13902E-04   -0.35231E-05 44953   0.572E-03    0.154E-02
RMM:  14    -0.294795651024E+04   -0.84873E-05   -0.28346E-05 42716   0.504E-03
  29 F= -.29479565E+04 E0= -.29479565E+04  d E =-.174766E-01  mag=   130.0000
 curvature:  -0.52 expect dE=-0.155E-01 dE for cont linesearch -0.278E-02
 ZBRENT: increasing intervall
 opt :   1.2948  next Energy= -2947.959949 (dE=-0.209E-01)
 bond charge predicted
       N       E                     dE             d eps       ncg     rms          rms(c)
DAV:   1    -0.294785526680E+04    0.10123E+00   -0.74914E+00 66816   0.510E+00    0.121E+00
RMM:   2    -0.294793641233E+04   -0.81146E-01   -0.85213E-01 62318   0.109E+00    0.109E+00
RMM:   3    -0.294795770655E+04   -0.21294E-01   -0.18997E-01 72805   0.426E-01    0.499E-01
RMM:   4    -0.294795976230E+04   -0.20557E-02   -0.21843E-02 72027   0.152E-01    0.533E-01
RMM:   5    -0.294795942867E+04    0.33363E-03   -0.35756E-03 64592   0.733E-02    0.198E-01
RMM:   6    -0.294795980362E+04   -0.37495E-03   -0.15603E-03 70118   0.359E-02    0.120E-01
RMM:   7    -0.294795991091E+04   -0.10729E-03   -0.42846E-04 76208   0.175E-02    0.822E-02
RMM:   8    -0.294795998514E+04   -0.74223E-04   -0.10621E-04 60450   0.954E-03    0.714E-02
RMM:   9    -0.294796008906E+04   -0.10393E-03   -0.97913E-05 55445   0.100E-02    0.570E-02
RMM:  10    -0.294796019359E+04   -0.10452E-03   -0.12356E-04 58091   0.986E-03    0.444E-02
RMM:  11    -0.294796029295E+04   -0.99365E-04   -0.14235E-04 60467   0.106E-02    0.380E-02
RMM:  12    -0.294796036583E+04   -0.72883E-04   -0.13195E-04 58019   0.108E-02    0.330E-02
RMM:  13    -0.294796041455E+04   -0.48716E-04   -0.12863E-04 58202   0.104E-02    0.272E-02
RMM:  14    -0.294796043962E+04   -0.25069E-04   -0.63995E-05 50855   0.753E-03    0.204E-02
RMM:  15    -0.294796045352E+04   -0.13898E-04   -0.38707E-05 46740   0.581E-03    0.137E-02
RMM:  16    -0.294796046118E+04   -0.76673E-05   -0.16027E-05 39308   0.401E-03
  30 F= -.29479605E+04 E0= -.29479605E+04  d E =-.214275E-01  mag=   130.0000
 curvature:  -0.64 expect dE=-0.693E-01 dE for cont linesearch -0.684E-03
 ZBRENT: bracketing found
 ZBRENT: interpolating
 opt :   1.0804  next Energy= -2947.961294 (dE=-0.223E-01)
 bond charge predicted
       N       E                     dE             d eps       ncg     rms          rms(c)
DAV:   1    -0.294795130971E+04    0.91438E-02   -0.71461E-01 69600   0.157E+00    0.372E-01
RMM:   2    -0.294795896418E+04   -0.76545E-02   -0.80164E-02 62266   0.333E-01    0.335E-01
RMM:   3    -0.294796089421E+04   -0.19300E-02   -0.17208E-02 72730   0.131E-01    0.153E-01
RMM:   4    -0.294796108237E+04   -0.18816E-03   -0.20767E-03 71772   0.468E-02    0.163E-01
RMM:   5    -0.294796105057E+04    0.31797E-04   -0.34424E-04 64402   0.228E-02    0.596E-02
RMM:   6    -0.294796108596E+04   -0.35394E-04   -0.14974E-04 62247   0.111E-02    0.359E-02
RMM:   7    -0.294796109554E+04   -0.95736E-05   -0.35650E-05 45867   0.608E-03
  31 F= -.29479611E+04 E0= -.29479611E+04  d E =-.220619E-01  mag=   130.0000
 curvature:  -0.78 expect dE=-0.581E-01 dE for cont linesearch -0.118E-04
 trial: gam= 1.98001 g(F)=  0.629E-01 g(S)=  0.113E-01 ort = 0.926E-03 (trialstep = 0.789E-01)
 search vector abs. value=  0.300E+00
 bond charge predicted
       N       E                     dE             d eps       ncg     rms          rms(c)
DAV:   1    -0.294795817247E+04    0.29135E-02   -0.50249E-01 68448   0.133E+00    0.313E-01
RMM:   2    -0.294796458127E+04   -0.64088E-02   -0.65014E-02 61603   0.282E-01    0.192E-01
RMM:   3    -0.294796667443E+04   -0.20932E-02   -0.17561E-02 71670   0.109E-01    0.106E-01
RMM:   4    -0.294796678759E+04   -0.11317E-03   -0.12092E-03 71523   0.347E-02    0.911E-02
RMM:   5    -0.294796679173E+04   -0.41336E-05   -0.17448E-04 63789   0.150E-02    0.463E-02
RMM:   6    -0.294796680254E+04   -0.10811E-04   -0.60257E-05 53742   0.831E-03    0.200E-02
RMM:   7    -0.294796680568E+04   -0.31446E-05   -0.14180E-05 38086   0.448E-03
  32 F= -.29479668E+04 E0= -.29479668E+04  d E =-.571014E-02  mag=   130.0000
 ZBRENT: can't locate minimum, use default step
 trial-energy change:   -0.005710  1 .order   -0.005727   -0.006003   -0.005451
 step:   0.3157(harm=  0.8587)  dis= 0.00550  next Energy= -2947.993755 (dE=-0.327E-01)
 bond charge predicted
       N       E                     dE             d eps       ncg     rms          rms(c)
DAV:   1    -0.294790657437E+04    0.60228E-01   -0.45638E+00 65952   0.400E+00    0.936E-01
RMM:   2    -0.294796255418E+04   -0.55980E-01   -0.56710E-01 61610   0.829E-01    0.574E-01
RMM:   3    -0.294797965226E+04   -0.17098E-01   -0.14222E-01 72082   0.322E-01    0.313E-01
RMM:   4    -0.294798069880E+04   -0.10465E-02   -0.10300E-02 72174   0.103E-01    0.275E-01
RMM:   5    -0.294798082609E+04   -0.12729E-03   -0.15887E-03 68545   0.457E-02    0.147E-01
RMM:   6    -0.294798103575E+04   -0.20966E-03   -0.59645E-04 66226   0.257E-02    0.807E-02
RMM:   7    -0.294798111804E+04   -0.82292E-04   -0.20893E-04 69747   0.127E-02    0.636E-02
RMM:   8    -0.294798119849E+04   -0.80445E-04   -0.70777E-05 53244   0.849E-03    0.558E-02
RMM:   9    -0.294798134071E+04   -0.14222E-03   -0.18089E-04 60191   0.123E-02    0.448E-02
RMM:  10    -0.294798144257E+04   -0.10186E-03   -0.16748E-04 61936   0.116E-02    0.357E-02
RMM:  11    -0.294798150966E+04   -0.67092E-04   -0.15593E-04 60737   0.114E-02    0.274E-02
RMM:  12    -0.294798154501E+04   -0.35351E-04   -0.78902E-05 54161   0.837E-03    0.201E-02
RMM:  13    -0.294798156556E+04   -0.20550E-04   -0.54145E-05 50737   0.671E-03    0.159E-02
RMM:  14    -0.294798157762E+04   -0.12066E-04   -0.29231E-05 43935   0.515E-03    0.128E-02
RMM:  15    -0.294798158479E+04   -0.71651E-05   -0.15469E-05 39432   0.378E-03
  33 F= -.29479816E+04 E0= -.29479816E+04  d E =-.204893E-01  mag=   130.0000
 curvature:  -0.87 expect dE=-0.485E-01 dE for cont linesearch -0.873E-02
 ZBRENT: increasing intervall
 opt :   0.7892  next Energy= -2948.000776 (dE=-0.397E-01)
 bond charge predicted
       N       E                     dE             d eps       ncg     rms          rms(c)
DAV:   1    -0.294772978962E+04    0.25179E+00   -0.18539E+01 66144   0.800E+00    0.187E+00
RMM:   2    -0.294793904683E+04   -0.20926E+00   -0.21196E+00 61614   0.160E+00    0.114E+00
RMM:   3    -0.294799368293E+04   -0.54636E-01   -0.44877E-01 72164   0.623E-01    0.608E-01
RMM:   4    -0.294799737181E+04   -0.36889E-02   -0.37728E-02 72173   0.202E-01    0.531E-01
RMM:   5    -0.294799774273E+04   -0.37092E-03   -0.59411E-03 68366   0.901E-02    0.269E-01
RMM:   6    -0.294799841841E+04   -0.67568E-03   -0.22540E-03 67802   0.498E-02    0.152E-01
RMM:   7    -0.294799868781E+04   -0.26939E-03   -0.76194E-04 76432   0.242E-02    0.114E-01
RMM:   8    -0.294799894184E+04   -0.25403E-03   -0.22537E-04 65422   0.148E-02    0.100E-01
RMM:   9    -0.294799933155E+04   -0.38971E-03   -0.42595E-04 63696   0.191E-02    0.812E-02
RMM:  10    -0.294799966181E+04   -0.33027E-03   -0.51905E-04 67591   0.199E-02    0.636E-02
RMM:  11    -0.294799990547E+04   -0.24366E-03   -0.56892E-04 72260   0.216E-02    0.492E-02
RMM:  12    -0.294800002658E+04   -0.12111E-03   -0.25510E-04 64668   0.140E-02    0.355E-02
RMM:  13    -0.294800009300E+04   -0.66421E-04   -0.15388E-04 60547   0.112E-02    0.278E-02
RMM:  14    -0.294800013229E+04   -0.39291E-04   -0.94442E-05 56122   0.860E-03    0.220E-02
RMM:  15    -0.294800015576E+04   -0.23470E-04   -0.50476E-05 49809   0.616E-03    0.182E-02
RMM:  16    -0.294800017116E+04   -0.15402E-04   -0.29628E-05 44039   0.504E-03    0.152E-02
RMM:  17    -0.294800018588E+04   -0.14721E-04   -0.45030E-05 46906   0.594E-03    0.121E-02
RMM:  18    -0.294800019420E+04   -0.83211E-05   -0.25533E-05 41722   0.452E-03
  34 F= -.29480002E+04 E0= -.29480002E+04  d E =-.390987E-01  mag=   130.0000
 curvature:  -1.92 expect dE=-0.160E+00 dE for cont linesearch -0.330E-02
 ZBRENT: increasing intervall
 opt :   1.7361  next Energy= -2947.991310 (dE=-0.302E-01)
 bond charge predicted
       N       E                     dE             d eps       ncg     rms          rms(c)
DAV:   1    -0.294690087172E+04    0.10993E+01   -0.74103E+01 67104   0.160E+01    0.381E+00
RMM:   2    -0.294774087095E+04   -0.84000E+00   -0.85190E+00 61601   0.322E+00    0.227E+00
RMM:   3    -0.294796300760E+04   -0.22214E+00   -0.18297E+00 72151   0.125E+00    0.123E+00
RMM:   4    -0.294797710542E+04   -0.14098E-01   -0.14600E-01 72244   0.404E-01    0.105E+00
RMM:   5    -0.294797841424E+04   -0.13088E-02   -0.24195E-02 68098   0.183E-01    0.537E-01
RMM:   6    -0.294798073321E+04   -0.23190E-02   -0.90320E-03 67835   0.100E-01    0.286E-01
RMM:   7    -0.294798168466E+04   -0.95145E-03   -0.30259E-03 78299   0.476E-02    0.211E-01
RMM:   8    -0.294798250501E+04   -0.82034E-03   -0.79161E-04 70407   0.273E-02    0.184E-01
RMM:   9    -0.294798373411E+04   -0.12291E-02   -0.13101E-03 65948   0.335E-02    0.148E-01
RMM:  10    -0.294798472171E+04   -0.98760E-03   -0.14933E-03 70487   0.332E-02    0.115E-01
RMM:  11    -0.294798548600E+04   -0.76429E-03   -0.16846E-03 74621   0.366E-02    0.874E-02
RMM:  12    -0.294798586496E+04   -0.37896E-03   -0.79163E-04 71196   0.244E-02    0.636E-02
RMM:  13    -0.294798607467E+04   -0.20971E-03   -0.49044E-04 69972   0.189E-02    0.497E-02
RMM:  14    -0.294798619489E+04   -0.12022E-03   -0.26955E-04 63329   0.138E-02    0.390E-02
RMM:  15    -0.294798627106E+04   -0.76172E-04   -0.15875E-04 59725   0.107E-02    0.318E-02
RMM:  16    -0.294798632592E+04   -0.54857E-04   -0.12045E-04 58374   0.923E-03    0.256E-02
RMM:  17    -0.294798636821E+04   -0.42296E-04   -0.13114E-04 58275   0.958E-03    0.200E-02
RMM:  18    -0.294798639272E+04   -0.24512E-04   -0.67641E-05 50705   0.673E-03    0.153E-02
RMM:  19    -0.294798640689E+04   -0.14171E-04   -0.44317E-05 46515   0.547E-03    0.120E-02
RMM:  20    -0.294798641492E+04   -0.80212E-05   -0.23769E-05 40427   0.407E-03
  35 F= -.29479864E+04 E0= -.29479864E+04  d E =-.253194E-01  mag=   130.0000
 curvature:   5.17 expect dE= 0.177E+01 dE for cont linesearch  0.512E-01
 ZBRENT: bracketing found
 ZBRENT: interpolating
 opt :   1.0676  next Energy= -2948.003356 (dE=-0.423E-01)
 bond charge predicted
       N       E                     dE             d eps       ncg     rms          rms(c)
DAV:   1    -0.294747363099E+04    0.51278E+00   -0.37070E+01 67872   0.113E+01    0.261E+00
RMM:   2    -0.294788994738E+04   -0.41632E+00   -0.42288E+00 61612   0.226E+00    0.178E+00
RMM:   3    -0.294799215549E+04   -0.10221E+00   -0.83685E-01 72025   0.874E-01    0.890E-01
RMM:   4    -0.294799930413E+04   -0.71486E-02   -0.72926E-02 71603   0.289E-01    0.814E-01
RMM:   5    -0.294799979553E+04   -0.49139E-03   -0.13060E-02 68852   0.131E-01    0.356E-01
RMM:   6    -0.294800114190E+04   -0.13464E-02   -0.44301E-03 69743   0.684E-02    0.207E-01
RMM:   7    -0.294800154732E+04   -0.40541E-03   -0.13462E-03 76911   0.323E-02    0.143E-01
RMM:   8    -0.294800188879E+04   -0.34147E-03   -0.35694E-04 69803   0.185E-02    0.125E-01
RMM:   9    -0.294800244907E+04   -0.56028E-03   -0.59860E-04 63866   0.229E-02    0.981E-02
RMM:  10    -0.294800291070E+04   -0.46164E-03   -0.71229E-04 68406   0.230E-02    0.788E-02
RMM:  11    -0.294800323474E+04   -0.32403E-03   -0.66342E-04 72192   0.230E-02    0.636E-02
RMM:  12    -0.294800340283E+04   -0.16809E-03   -0.34711E-04 67205   0.166E-02    0.457E-02
RMM:  13    -0.294800350267E+04   -0.99841E-04   -0.25778E-04 65101   0.143E-02    0.347E-02
RMM:  14    -0.294800355481E+04   -0.52145E-04   -0.11673E-04 57924   0.974E-03    0.254E-02
RMM:  15    -0.294800358496E+04   -0.30144E-04   -0.65769E-05 52371   0.699E-03    0.202E-02
RMM:  16    -0.294800360427E+04   -0.19318E-04   -0.35730E-05 45817   0.574E-03    0.167E-02
RMM:  17    -0.294800362001E+04   -0.15732E-04   -0.40780E-05 46467   0.592E-03    0.139E-02
RMM:  18    -0.294800362888E+04   -0.88714E-05   -0.24116E-05 41919   0.476E-03
  36 F= -.29480036E+04 E0= -.29480036E+04  d E =-.425333E-01  mag=   130.0000
 curvature:  -0.32 expect dE=-0.417E-01 dE for cont linesearch -0.543E-05
 trial: gam= 1.55625 g(F)=  0.124E+00 g(S)=  0.671E-02 ort = 0.226E-02 (trialstep = 0.960E-01)
 search vector abs. value=  0.865E+00
 bond charge predicted
       N       E                     dE             d eps       ncg     rms          rms(c)
DAV:   1    -0.294797117099E+04    0.32449E-01   -0.21144E+00 67392   0.280E+00    0.704E-01
RMM:   2    -0.294800286533E+04   -0.31694E-01   -0.31898E-01 61605   0.606E-01    0.376E-01
RMM:   3    -0.294801486505E+04   -0.12000E-01   -0.10022E-01 71053   0.234E-01    0.229E-01
RMM:   4    -0.294801556057E+04   -0.69551E-03   -0.65468E-03 72395   0.748E-02    0.190E-01
RMM:   5    -0.294801562777E+04   -0.67206E-04   -0.75259E-04 70354   0.290E-02    0.116E-01
RMM:   6    -0.294801572090E+04   -0.93128E-04   -0.26465E-04 62399   0.171E-02    0.516E-02
RMM:   7    -0.294801575137E+04   -0.30470E-04   -0.83964E-05 56008   0.870E-03    0.403E-02
RMM:   8    -0.294801577248E+04   -0.21114E-04   -0.26659E-05 42733   0.536E-03    0.340E-02
RMM:   9    -0.294801581699E+04   -0.44508E-04   -0.52587E-05 49155   0.689E-03    0.276E-02
RMM:  10    -0.294801585171E+04   -0.34721E-04   -0.59093E-05 49830   0.708E-03    0.241E-02
RMM:  11    -0.294801586934E+04   -0.17631E-04   -0.38403E-05 46418   0.607E-03    0.189E-02
RMM:  12    -0.294801587910E+04   -0.97517E-05   -0.24336E-05 41782   0.481E-03
  37 F= -.29480159E+04 E0= -.29480159E+04  d E =-.122502E-01  mag=   130.0000
 ZBRENT: can't locate minimum, use default step
 trial-energy change:   -0.012250  1 .order   -0.012256   -0.012894   -0.011618
 step:   0.3841(harm=  0.9704)  dis= 0.01245  next Energy= -2948.068775 (dE=-0.651E-01)
 bond charge predicted
       N       E                     dE             d eps       ncg     rms          rms(c)
DAV:   1    -0.294772724168E+04    0.28863E+00   -0.19874E+01 66720   0.840E+00    0.201E+00
RMM:   2    -0.294796935825E+04   -0.24212E+00   -0.24400E+00 61595   0.167E+00    0.108E+00
RMM:   3    -0.294803761716E+04   -0.68259E-01   -0.55925E-01 71633   0.644E-01    0.623E-01
[...]
RMM:  10    -0.294836270958E+04   -0.16250E-04   -0.22545E-05 42085   0.459E-03    0.192E-02
RMM:  11    -0.294836272016E+04   -0.10584E-04   -0.15550E-05 40093   0.378E-03    0.157E-02
RMM:  12    -0.294836272869E+04   -0.85295E-05   -0.15999E-05 40195   0.380E-03
  73 F= -.29483627E+04 E0= -.29483627E+04  d E =-.887280E-02  mag=   130.0000
 curvature:  -1.05 expect dE=-0.261E-01 dE for cont linesearch -0.203E-03
 trial: gam= 1.04269 g(F)=  0.226E-01 g(S)=  0.219E-02 ort =-0.432E-02 (trialstep = 0.283E+00)
 search vector abs. value=  0.121E+00
 bond charge predicted
       N       E                     dE             d eps       ncg     rms          rms(c)
DAV:   1    -0.294833694745E+04    0.25773E-01   -0.26694E+00 68928   0.280E+00    0.605E-01
RMM:   2    -0.294836005148E+04   -0.23104E-01   -0.23897E-01 61507   0.561E-01    0.414E-01
RMM:   3    -0.294836678604E+04   -0.67346E-02   -0.57123E-02 71737   0.217E-01    0.211E-01
RMM:   4    -0.294836721696E+04   -0.43092E-03   -0.47920E-03 71759   0.714E-02    0.200E-01
RMM:   5    -0.294836720355E+04    0.13405E-04   -0.77850E-04 71814   0.299E-02    0.948E-02
RMM:   6    -0.294836726226E+04   -0.58703E-04   -0.25804E-04 66427   0.160E-02    0.463E-02
RMM:   7    -0.294836727976E+04   -0.17503E-04   -0.80592E-05 57075   0.833E-03    0.259E-02
RMM:   8    -0.294836728678E+04   -0.70233E-05   -0.17454E-05 39763   0.441E-03
  74 F= -.29483673E+04 E0= -.29483673E+04  d E =-.455809E-02  mag=   130.0000
 trial-energy change:   -0.004558  1 .order   -0.004442   -0.005733   -0.003150
 step:   0.5151(harm=  0.6289)  dis= 0.00626  next Energy= -2948.368639 (dE=-0.591E-02)
 bond charge predicted
       N       E                     dE             d eps       ncg     rms          rms(c)
DAV:   1    -0.294834895547E+04    0.18324E-01   -0.17904E+00 69984   0.229E+00    0.494E-01
RMM:   2    -0.294836437682E+04   -0.15421E-01   -0.15927E-01 61510   0.456E-01    0.339E-01
RMM:   3    -0.294836882670E+04   -0.44499E-02   -0.37657E-02 71927   0.176E-01    0.173E-01
RMM:   4    -0.294836911159E+04   -0.28489E-03   -0.31048E-03 71800   0.576E-02    0.165E-01
RMM:   5    -0.294836910978E+04    0.18182E-05   -0.51945E-04 71456   0.244E-02    0.797E-02
RMM:   6    -0.294836916089E+04   -0.51116E-04   -0.18203E-04 65387   0.135E-02    0.420E-02
RMM:   7    -0.294836917801E+04   -0.17117E-04   -0.59154E-05 52253   0.715E-03    0.262E-02
RMM:   8    -0.294836918722E+04   -0.92092E-05   -0.15264E-05 39424   0.432E-03
  75 F= -.29483692E+04 E0= -.29483692E+04  d E =-.645853E-02  mag=   130.0000
 curvature:  -1.68 expect dE=-0.211E-01 dE for cont linesearch -0.215E-03
 ZBRENT: increasing intervall
 opt :   0.9786  next Energy= -2948.367686 (dE=-0.496E-02)
 bond charge predicted
       N       E                     dE             d eps       ncg     rms          rms(c)
DAV:   1    -0.294828735021E+04    0.81828E-01   -0.71583E+00 69216   0.458E+00    0.987E-01
RMM:   2    -0.294834887850E+04   -0.61528E-01   -0.63595E-01 61510   0.912E-01    0.679E-01
RMM:   3    -0.294836660735E+04   -0.17729E-01   -0.15037E-01 71852   0.352E-01    0.344E-01
RMM:   4    -0.294836772316E+04   -0.11158E-02   -0.12434E-02 71793   0.116E-01    0.328E-01
RMM:   5    -0.294836769067E+04    0.32493E-04   -0.20553E-03 72405   0.487E-02    0.156E-01
RMM:   6    -0.294836785976E+04   -0.16909E-03   -0.69850E-04 68954   0.259E-02    0.794E-02
RMM:   7    -0.294836791326E+04   -0.53498E-04   -0.22716E-04 72429   0.133E-02    0.458E-02
RMM:   8    -0.294836793718E+04   -0.23927E-04   -0.56474E-05 50541   0.664E-03    0.389E-02
RMM:   9    -0.294836797459E+04   -0.37409E-04   -0.46464E-05 46942   0.676E-03    0.293E-02
RMM:  10    -0.294836800643E+04   -0.31842E-04   -0.48719E-05 47362   0.628E-03    0.226E-02
RMM:  11    -0.294836802193E+04   -0.15499E-04   -0.26200E-05 44158   0.474E-03    0.186E-02
RMM:  12    -0.294836803405E+04   -0.12116E-04   -0.26028E-05 43084   0.458E-03    0.136E-02
RMM:  13    -0.294836804217E+04   -0.81217E-05   -0.22844E-05 41660   0.441E-03
  76 F= -.29483680E+04 E0= -.29483680E+04  d E =-.531348E-02  mag=   130.0000
 curvature:  11.73 expect dE= 0.306E+00 dE for cont linesearch  0.888E-02
 ZBRENT: bracketing found
 ZBRENT: interpolating
 opt :   0.6502  next Energy= -2948.369453 (dE=-0.672E-02)
 bond charge predicted
       N       E                     dE             d eps       ncg     rms          rms(c)
DAV:   1    -0.294832881527E+04    0.39219E-01   -0.35883E+00 68736   0.324E+00    0.702E-01
RMM:   2    -0.294835980363E+04   -0.30988E-01   -0.32035E-01 61511   0.650E-01    0.474E-01
RMM:   3    -0.294836891553E+04   -0.91119E-02   -0.77392E-02 71644   0.252E-01    0.242E-01
RMM:   4    -0.294836949550E+04   -0.57997E-03   -0.65369E-03 71803   0.832E-02    0.229E-01
RMM:   5    -0.294836946779E+04    0.27716E-04   -0.10220E-03 71796   0.345E-02    0.108E-01
RMM:   6    -0.294836953105E+04   -0.63258E-04   -0.33702E-04 67008   0.183E-02    0.516E-02
RMM:   7    -0.294836954930E+04   -0.18253E-04   -0.10439E-04 62118   0.952E-03    0.265E-02
RMM:   8    -0.294836955460E+04   -0.52980E-05   -0.21747E-05 40598   0.468E-03
  77 F= -.29483696E+04 E0= -.29483696E+04  d E =-.682591E-02  mag=   130.0000
 curvature:  -0.35 expect dE=-0.505E-02 dE for cont linesearch -0.251E-05
 trial: gam= 0.24803 g(F)=  0.138E-01 g(S)=  0.569E-03 ort = 0.931E-03 (trialstep = 0.357E+00)
 search vector abs. value=  0.223E-01
 bond charge predicted
       N       E                     dE             d eps       ncg     rms          rms(c)
DAV:   1    -0.294836457247E+04    0.49768E-02   -0.78876E-01 65568   0.147E+00    0.362E-01
RMM:   2    -0.294837123342E+04   -0.66610E-02   -0.72247E-02 61997   0.327E-01    0.382E-01
RMM:   3    -0.294837314227E+04   -0.19088E-02   -0.18130E-02 71399   0.129E-01    0.185E-01
RMM:   4    -0.294837331983E+04   -0.17756E-03   -0.22008E-03 72738   0.489E-02    0.201E-01
RMM:   5    -0.294837324960E+04    0.70230E-04   -0.39059E-04 65482   0.234E-02    0.813E-02
RMM:   6    -0.294837327782E+04   -0.28219E-04   -0.18463E-04 62401   0.120E-02    0.455E-02
RMM:   7    -0.294837328185E+04   -0.40279E-05   -0.40366E-05 47590   0.652E-03
  78 F= -.29483733E+04 E0= -.29483733E+04  d E =-.372725E-02  mag=   130.0000
 trial-energy change:   -0.003727  1 .order   -0.003879   -0.005199   -0.002558
 step:   0.7021(harm=  0.7021)  dis= 0.00306  next Energy= -2948.374672 (dE=-0.512E-02)
 bond charge predicted
       N       E                     dE             d eps       ncg     rms          rms(c)
DAV:   1    -0.294836609547E+04    0.71823E-02   -0.74017E-01 65184   0.143E+00    0.356E-01
RMM:   2    -0.294837242744E+04   -0.63320E-02   -0.68325E-02 62035   0.321E-01    0.372E-01
RMM:   3    -0.294837432124E+04   -0.18938E-02   -0.17783E-02 71302   0.127E-01    0.182E-01
RMM:   4    -0.294837452158E+04   -0.20034E-03   -0.22722E-03 73444   0.493E-02    0.200E-01
RMM:   5    -0.294837446106E+04    0.60525E-04   -0.37779E-04 66021   0.228E-02    0.844E-02
RMM:   6    -0.294837449393E+04   -0.32876E-04   -0.18187E-04 62872   0.120E-02    0.489E-02
RMM:   7    -0.294837450085E+04   -0.69192E-05   -0.44476E-05 48118   0.654E-03
  79 F= -.29483745E+04 E0= -.29483745E+04  d E =-.494626E-02  mag=   130.0000
 curvature:  -0.54 expect dE=-0.417E-02 dE for cont linesearch -0.261E-05
 trial: gam= 0.54322 g(F)=  0.764E-02 g(S)=  0.133E-03 ort = 0.329E-03 (trialstep = 0.426E+00)
 search vector abs. value=  0.147E-01
 bond charge predicted
       N       E                     dE             d eps       ncg     rms          rms(c)
DAV:   1    -0.294836840900E+04    0.60849E-02   -0.73830E-01 68640   0.147E+00    0.331E-01
RMM:   2    -0.294837472758E+04   -0.63186E-02   -0.66198E-02 61848   0.321E-01    0.293E-01
RMM:   3    -0.294837672018E+04   -0.19926E-02   -0.17520E-02 72982   0.127E-01    0.147E-01
RMM:   4    -0.294837687310E+04   -0.15291E-03   -0.16812E-03 72470   0.426E-02    0.151E-01
RMM:   5    -0.294837685287E+04    0.20229E-04   -0.32556E-04 68981   0.201E-02    0.656E-02
RMM:   6    -0.294837688633E+04   -0.33459E-04   -0.12431E-04 60884   0.108E-02    0.337E-02
RMM:   7    -0.294837689423E+04   -0.78995E-05   -0.31751E-05 44472   0.559E-03
  80 F= -.29483769E+04 E0= -.29483769E+04  d E =-.239337E-02  mag=   130.0000
 trial-energy change:   -0.002393  1 .order   -0.002356   -0.003385   -0.001327
 step:   0.7002(harm=  0.7002)  dis= 0.00226  next Energy= -2948.377284 (dE=-0.278E-02)
 bond charge predicted
       N       E                     dE             d eps       ncg     rms          rms(c)
DAV:   1    -0.294837389004E+04    0.29963E-02   -0.30798E-01 69792   0.946E-01    0.214E-01
RMM:   2    -0.294837650923E+04   -0.26192E-02   -0.27339E-02 61861   0.204E-01    0.190E-01
RMM:   3    -0.294837729618E+04   -0.78695E-03   -0.68337E-03 73517   0.797E-02    0.970E-02
RMM:   4    -0.294837735539E+04   -0.59208E-04   -0.61500E-04 71971   0.261E-02    0.992E-02
RMM:   5    -0.294837735243E+04    0.29543E-05   -0.13695E-04 63327   0.130E-02    0.438E-02
RMM:   6    -0.294837737172E+04   -0.19288E-04   -0.52772E-05 50927   0.739E-03    0.248E-02
RMM:   7    -0.294837737744E+04   -0.57222E-05   -0.14296E-05 38759   0.415E-03
  81 F= -.29483774E+04 E0= -.29483774E+04  d E =-.287659E-02  mag=   130.0000
 curvature:  -0.65 expect dE=-0.318E-02 dE for cont linesearch -0.247E-06
 trial: gam= 0.67483 g(F)=  0.460E-02 g(S)=  0.315E-03 ort = 0.749E-04 (trialstep = 0.481E+00)
 search vector abs. value=  0.117E-01
 bond charge predicted
       N       E                     dE             d eps       ncg     rms          rms(c)
DAV:   1    -0.294837064619E+04    0.67255E-02   -0.72512E-01 66624   0.144E+00    0.311E-01
RMM:   2    -0.294837682457E+04   -0.61784E-02   -0.64005E-02 61553   0.324E-01    0.248E-01
RMM:   3    -0.294837903362E+04   -0.22090E-02   -0.19014E-02 69901   0.127E-01    0.124E-01
RMM:   4    -0.294837922274E+04   -0.18911E-03   -0.20111E-03 73057   0.462E-02    0.132E-01
RMM:   5    -0.294837921131E+04    0.11423E-04   -0.28453E-04 70330   0.185E-02    0.675E-02
RMM:   6    -0.294837923950E+04   -0.28189E-04   -0.11325E-04 60657   0.106E-02    0.333E-02
RMM:   7    -0.294837924870E+04   -0.91987E-05   -0.30320E-05 43606   0.550E-03
  82 F= -.29483792E+04 E0= -.29483792E+04  d E =-.187126E-02  mag=   130.0000
 trial-energy change:   -0.001871  1 .order   -0.001830   -0.002387   -0.001273
 step:   0.8723(harm=  1.0300)  dis= 0.00244  next Energy= -2948.379790 (dE=-0.241E-02)
 bond charge predicted
       N       E                     dE             d eps       ncg     rms          rms(c)
DAV:   1    -0.294837442708E+04    0.48124E-02   -0.48394E-01 67392   0.117E+00    0.252E-01
RMM:   2    -0.294837842949E+04   -0.40024E-02   -0.41467E-02 61553   0.259E-01    0.204E-01
RMM:   3    -0.294837979905E+04   -0.13696E-02   -0.11759E-02 70201   0.102E-01    0.102E-01
RMM:   4    -0.294837992411E+04   -0.12506E-03   -0.12801E-03 72940   0.371E-02    0.109E-01
RMM:   5    -0.294837992024E+04    0.38719E-05   -0.18872E-04 67529   0.151E-02    0.559E-02
RMM:   6    -0.294837994383E+04   -0.23589E-04   -0.75474E-05 57922   0.885E-03    0.299E-02
RMM:   7    -0.294837995215E+04   -0.83245E-05   -0.21724E-05 40536   0.479E-03
  83 F= -.29483800E+04 E0= -.29483800E+04  d E =-.257471E-02  mag=   130.0000
 curvature:  -1.11 expect dE=-0.467E-02 dE for cont linesearch -0.511E-04
 trial: gam= 0.71519 g(F)=  0.387E-02 g(S)=  0.316E-03 ort = 0.733E-03 (trialstep = 0.559E+00)
 search vector abs. value=  0.112E-01
 bond charge predicted
       N       E                     dE             d eps       ncg     rms          rms(c)
DAV:   1    -0.294837086011E+04    0.90837E-02   -0.95037E-01 66528   0.168E+00    0.367E-01
RMM:   2    -0.294837896289E+04   -0.81028E-02   -0.84771E-02 61586   0.371E-01    0.346E-01
RMM:   3    -0.294838156895E+04   -0.26061E-02   -0.23012E-02 70964   0.147E-01    0.166E-01
RMM:   4    -0.294838180857E+04   -0.23962E-03   -0.25246E-03 72270   0.519E-02    0.183E-01
RMM:   5    -0.294838177078E+04    0.37789E-04   -0.41333E-04 68615   0.234E-02    0.793E-02
RMM:   6    -0.294838180656E+04   -0.35783E-04   -0.15656E-04 63647   0.120E-02    0.439E-02
RMM:   7    -0.294838181451E+04   -0.79510E-05   -0.42307E-05 47611   0.650E-03
  84 F= -.29483818E+04 E0= -.29483818E+04  d E =-.186236E-02  mag=   130.0000
 trial-energy change:   -0.001862  1 .order   -0.001706   -0.002635   -0.000778
 step:   0.7024(harm=  0.7931)  dis= 0.00185  next Energy= -2948.381917 (dE=-0.196E-02)
 bond charge predicted
       N       E                     dE             d eps       ncg     rms          rms(c)
DAV:   1    -0.294838125589E+04    0.55067E-03   -0.62583E-02 68832   0.431E-01    0.101E-01
RMM:   2    -0.294838180270E+04   -0.54682E-03   -0.56696E-03 61587   0.963E-02    0.907E-02
RMM:   3    -0.294838198507E+04   -0.18237E-03   -0.15720E-03 71671   0.380E-02    0.451E-02
RMM:   4    -0.294838200687E+04   -0.21800E-04   -0.18235E-04 64407   0.138E-02    0.500E-02
RMM:   5    -0.294838200808E+04   -0.12094E-05   -0.30622E-05 41365   0.640E-03
  85 F= -.29483820E+04 E0= -.29483820E+04  d E =-.205593E-02  mag=   130.0000
 curvature:  -0.80 expect dE=-0.200E-02 dE for cont linesearch -0.169E-04
 trial: gam= 0.66628 g(F)=  0.229E-02 g(S)=  0.202E-03 ort = 0.486E-03 (trialstep = 0.588E+00)
 search vector abs. value=  0.813E-02
 bond charge predicted
       N       E                     dE             d eps       ncg     rms          rms(c)
DAV:   1    -0.294837471512E+04    0.72918E-02   -0.75638E-01 67008   0.145E+00    0.311E-01
RMM:   2    -0.294838086949E+04   -0.61544E-02   -0.64126E-02 61772   0.321E-01    0.264E-01
RMM:   3    -0.294838291390E+04   -0.20444E-02   -0.17882E-02 71590   0.127E-01    0.129E-01
RMM:   4    -0.294838308053E+04   -0.16663E-03   -0.18519E-03 73650   0.441E-02    0.134E-01
RMM:   5    -0.294838306593E+04    0.14599E-04   -0.29557E-04 70616   0.191E-02    0.614E-02
RMM:   6    -0.294838308964E+04   -0.23708E-04   -0.10454E-04 61074   0.100E-02    0.314E-02
RMM:   7    -0.294838309568E+04   -0.60456E-05   -0.26353E-05 41967   0.544E-03
  86 F= -.29483831E+04 E0= -.29483831E+04  d E =-.108760E-02  mag=   130.0000
 trial-energy change:   -0.001088  1 .order   -0.001080   -0.001655   -0.000505
 step:   0.8454(harm=  0.8454)  dis= 0.00188  next Energy= -2948.383199 (dE=-0.119E-02)
 bond charge predicted
       N       E                     dE             d eps       ncg     rms          rms(c)
DAV:   1    -0.294838155571E+04    0.15339E-02   -0.14563E-01 68928   0.635E-01    0.140E-01
RMM:   2    -0.294838275649E+04   -0.12008E-02   -0.12433E-02 61776   0.142E-01    0.118E-01
RMM:   3    -0.294838315968E+04   -0.40319E-03   -0.34984E-03 71761   0.561E-02    0.581E-02
RMM:   4    -0.294838319619E+04   -0.36510E-04   -0.37135E-04 72053   0.197E-02    0.622E-02
RMM:   5    -0.294838319612E+04    0.77707E-07   -0.60009E-05 52102   0.864E-03
  87 F= -.29483832E+04 E0= -.29483832E+04  d E =-.118803E-02  mag=   130.0000
 curvature:  -1.22 expect dE=-0.296E-02 dE for cont linesearch -0.278E-05
 trial: gam= 1.19029 g(F)=  0.235E-02 g(S)=  0.793E-04 ort =-0.136E-03 (trialstep = 0.381E+00)
 search vector abs. value=  0.136E-01
 bond charge predicted
       N       E                     dE             d eps       ncg     rms          rms(c)
DAV:   1    -0.294837862908E+04    0.45671E-02   -0.53407E-01 67008   0.117E+00    0.244E-01
RMM:   2    -0.294838253347E+04   -0.39044E-02   -0.40342E-02 61560   0.247E-01    0.159E-01
RMM:   3    -0.294838382031E+04   -0.12868E-02   -0.11032E-02 70978   0.972E-02    0.855E-02
RMM:   4    -0.294838391616E+04   -0.95854E-04   -0.10649E-03 72423   0.329E-02    0.769E-02
RMM:   5    -0.294838391959E+04   -0.34341E-05   -0.16175E-04 65636   0.135E-02    0.421E-02
RMM:   6    -0.294838393087E+04   -0.11280E-04   -0.56431E-05 55113   0.785E-03    0.195E-02
RMM:   7    -0.294838393487E+04   -0.39994E-05   -0.14544E-05 38258   0.425E-03
  88 F= -.29483839E+04 E0= -.29483839E+04  d E =-.738757E-03  mag=   130.0000
 trial-energy change:   -0.000739  1 .order   -0.000698   -0.000865   -0.000532
 step:   0.6519(harm=  0.9899)  dis= 0.00187  next Energy= -2948.384138 (dE=-0.942E-03)
 bond charge predicted
       N       E                     dE             d eps       ncg     rms          rms(c)
DAV:   1    -0.294838156668E+04    0.23642E-02   -0.26938E-01 68352   0.834E-01    0.173E-01
RMM:   2    -0.294838353710E+04   -0.19704E-02   -0.20303E-02 61559   0.175E-01    0.113E-01
RMM:   3    -0.294838417773E+04   -0.64062E-03   -0.54823E-03 70969   0.687E-02    0.608E-02
RMM:   4    -0.294838422618E+04   -0.48454E-04   -0.52821E-04 71863   0.233E-02    0.557E-02
RMM:   5    -0.294838422883E+04   -0.26466E-05   -0.82486E-05 57229   0.971E-03
  89 F= -.29483842E+04 E0= -.29483842E+04  d E =-.103271E-02  mag=   130.0000
 curvature:  -2.06 expect dE=-0.342E-02 dE for cont linesearch -0.474E-04
 ZBRENT: increasing intervall
 opt :   1.1928  next Energy= -2948.384081 (dE=-0.885E-03)
 bond charge predicted
       N       E                     dE             d eps       ncg     rms          rms(c)
DAV:   1    -0.294837382461E+04    0.10402E-01   -0.10755E+00 67776   0.167E+00    0.343E-01
RMM:   2    -0.294838161446E+04   -0.77899E-02   -0.80549E-02 61558   0.345E-01    0.226E-01
RMM:   3    -0.294838407591E+04   -0.24614E-02   -0.21027E-02 71224   0.135E-01    0.121E-01
RMM:   4    -0.294838424979E+04   -0.17388E-03   -0.19882E-03 72314   0.450E-02    0.108E-01
RMM:   5    -0.294838425388E+04   -0.40937E-05   -0.31135E-04 71218   0.188E-02    0.568E-02
RMM:   6    -0.294838427343E+04   -0.19552E-04   -0.10563E-04 61385   0.105E-02    0.269E-02
RMM:   7    -0.294838428011E+04   -0.66725E-05   -0.29770E-05 43601   0.562E-03
  90 F= -.29483843E+04 E0= -.29483843E+04  d E =-.108399E-02  mag=   130.0000
 curvature:   6.39 expect dE= 0.210E-01 dE for cont linesearch  0.209E-03
 ZBRENT: bracketing found
 ZBRENT: interpolating
 opt :   0.8988  next Energy= -2948.384298 (dE=-0.110E-02)
 bond charge predicted
       N       E                     dE             d eps       ncg     rms          rms(c)
DAV:   1    -0.294838131048E+04    0.29630E-02   -0.31824E-01 68448   0.905E-01    0.184E-01
RMM:   2    -0.294838360187E+04   -0.22914E-02   -0.23697E-02 61559   0.187E-01    0.120E-01
RMM:   3    -0.294838431741E+04   -0.71555E-03   -0.61361E-03 70637   0.729E-02    0.657E-02
RMM:   4    -0.294838436437E+04   -0.46961E-04   -0.57431E-04 71146   0.243E-02    0.578E-02
RMM:   5    -0.294838436265E+04    0.17189E-05   -0.86814E-05 58368   0.102E-02
  91 F= -.29483844E+04 E0= -.29483844E+04  d E =-.116654E-02  mag=   130.0000
 curvature:  -2.11 expect dE=-0.473E-02 dE for cont linesearch -0.795E-05
 trial: gam= 0.55414 g(F)=  0.218E-02 g(S)=  0.566E-04 ort = 0.226E-03 (trialstep = 0.485E+00)
 search vector abs. value=  0.667E-02
 bond charge predicted
       N       E                     dE             d eps       ncg     rms          rms(c)
DAV:   1    -0.294838051098E+04    0.38534E-02   -0.43478E-01 68352   0.112E+00    0.232E-01
RMM:   2    -0.294838406370E+04   -0.35527E-02   -0.36731E-02 61569   0.239E-01    0.208E-01
RMM:   3    -0.294838513726E+04   -0.10736E-02   -0.93346E-03 71319   0.935E-02    0.945E-02
RMM:   4    -0.294838522391E+04   -0.86647E-04   -0.92859E-04 71963   0.316E-02    0.105E-01
RMM:   5    -0.294838521260E+04    0.11308E-04   -0.15283E-04 65370   0.140E-02    0.486E-02
RMM:   6    -0.294838522271E+04   -0.10114E-04   -0.56754E-05 53887   0.754E-03    0.230E-02
RMM:   7    -0.294838522475E+04   -0.20365E-05   -0.12334E-05 38146   0.411E-03
  92 F= -.29483852E+04 E0= -.29483852E+04  d E =-.862097E-03  mag=   130.0000
 trial-energy change:   -0.000862  1 .order   -0.000819   -0.001144   -0.000493
 step:   0.7159(harm=  0.8522)  dis= 0.00135  next Energy= -2948.385347 (dE=-0.984E-03)
 reached required accuracy - stopping structural energy minimisation
