VO2:Mo (V126 Mo2 O256)  x(Mo)=1.56%     
           1
    14.125556    0.000811   -4.253218
    -2.241317   24.412927   -7.440800
    -0.075166    0.186555   12.528399
   V    Mo   O 
   126     2   256
Direct configuration=     1
   0.17414732  0.06981011  0.19652680
   0.17414732  0.06981011  0.69652680
   0.17414732  0.31981011  0.19652680
   0.17414732  0.31981011  0.69652680
   0.17414732  0.56981011  0.19652680
   0.17414732  0.56981011  0.69652680
   0.17414732  0.81981011  0.19652680
   0.17414732  0.81981011  0.69652680
   0.42414732  0.06981011  0.19652680
   0.42414732  0.06981011  0.69652680
   0.42414732  0.31981011  0.19652680
   0.42414732  0.31981011  0.69652680
   0.42414732  0.56981011  0.19652680
   0.42414732  0.56981011  0.69652680
   0.42414732  0.81981011  0.19652680
   0.42414732  0.81981011  0.69652680
   0.67414732  0.06981011  0.19652680
   0.67414732  0.06981011  0.69652680
   0.67414732  0.31981011  0.19652680
   0.67414732  0.31981011  0.69652680
   0.67414732  0.56981011  0.19652680
   0.67414732  0.56981011  0.69652680
   0.67414732  0.81981011  0.19652680
   0.67414732  0.81981011  0.69652680
   0.92414732  0.06981011  0.19652680
   0.92414732  0.06981011  0.69652680
   0.92414732  0.31981011  0.19652680
   0.92414732  0.31981011  0.69652680
   0.92414732  0.56981011  0.19652680
   0.92414732  0.56981011  0.69652680
   0.92414732  0.81981011  0.19652680
   0.92414732  0.81981011  0.69652680
   0.07585268  0.18018989  0.30347320
   0.07585268  0.18018989  0.80347320
   0.07585268  0.43018989  0.30347320
   0.07585268  0.43018989  0.80347320
   0.07585268  0.68018989  0.30347320
   0.07585268  0.68018989  0.80347320
   0.07585268  0.93018989  0.30347320
   0.07585268  0.93018989  0.80347320
   0.32585268  0.18018989  0.30347320
   0.32585268  0.18018989  0.80347320
   0.32585268  0.43018989  0.30347320
   0.32585268  0.43018989  0.80347320
   0.32585268  0.68018989  0.30347320
   0.32585268  0.68018989  0.80347320
   0.32585268  0.93018989  0.30347320
   0.32585268  0.93018989  0.80347320
   0.57585268  0.18018989  0.30347320
   0.57585268  0.18018989  0.80347320
   0.57585268  0.43018989  0.30347320
   0.57585268  0.43018989  0.80347320
   0.57585268  0.68018989  0.30347320
   0.57585268  0.68018989  0.80347320
   0.57585268  0.93018989  0.30347320
   0.57585268  0.93018989  0.80347320
   0.82585268  0.18018989  0.30347320
   0.82585268  0.18018989  0.80347320
   0.82585268  0.43018989  0.30347320
   0.82585268  0.43018989  0.80347320
   0.82585268  0.68018989  0.30347320
   0.82585268  0.68018989  0.80347320
   0.82585268  0.93018989  0.30347320
   0.82585268  0.93018989  0.80347320
   0.15015478  0.17462354  0.10022035
   0.15015478  0.17462354  0.60022035
   0.15015478  0.42462354  0.10022035
   0.15015478  0.42462354  0.60022035
   0.15015478  0.67462354  0.10022035
   0.15015478  0.67462354  0.60022035
   0.15015478  0.92462354  0.10022035
   0.15015478  0.92462354  0.60022035
   0.40015478  0.17462354  0.10022035
   0.40015478  0.17462354  0.60022035
   0.40015478  0.42462354  0.10022035
   0.40015478  0.42462354  0.60022035
   0.40015478  0.67462354  0.10022035
   0.40015478  0.67462354  0.60022035
   0.40015478  0.92462354  0.10022035
   0.40015478  0.92462354  0.60022035
   0.65015478  0.17462354  0.10022035
   0.65015478  0.17462354  0.60022035
   0.65015478  0.42462354  0.10022035
   0.65015478  0.42462354  0.60022035
   0.65015478  0.67462354  0.10022035
   0.65015478  0.67462354  0.60022035
   0.65015478  0.92462354  0.10022035
   0.65015478  0.92462354  0.60022035
   0.90015478  0.17462354  0.10022035
   0.90015478  0.17462354  0.60022035
   0.90015478  0.42462354  0.10022035
   0.90015478  0.42462354  0.60022035
   0.90015478  0.67462354  0.10022035
   0.90015478  0.67462354  0.60022035
   0.90015478  0.92462354  0.10022035
   0.90015478  0.92462354  0.60022035
   0.09984522  0.07537646  0.39977965
   0.09984522  0.07537646  0.89977965
   0.09984522  0.32537646  0.39977965
   0.09984522  0.32537646  0.89977965
   0.09984522  0.57537646  0.39977965
   0.09984522  0.57537646  0.89977965
   0.09984522  0.82537646  0.39977965
   0.09984522  0.82537646  0.89977965
   0.34984522  0.07537646  0.39977965
   0.34984522  0.07537646  0.89977965
   0.34984522  0.32537646  0.39977965
   0.34984522  0.32537646  0.89977965
   0.34984522  0.57537646  0.39977965
   0.34984522  0.57537646  0.89977965
   0.34984522  0.82537646  0.39977965
   0.34984522  0.82537646  0.89977965
   0.59984522  0.07537646  0.39977965
   0.59984522  0.07537646  0.89977965
   0.59984522  0.32537646  0.39977965
   0.59984522  0.32537646  0.89977965
   0.59984522  0.57537646  0.39977965
   0.59984522  0.57537646  0.89977965
   0.59984522  0.82537646  0.39977965
   0.59984522  0.82537646  0.89977965
   0.84984522  0.07537646  0.39977965
   0.84984522  0.07537646  0.89977965
   0.84984522  0.32537646  0.39977965
   0.84984522  0.32537646  0.89977965
   0.84984522  0.57537646  0.39977965
   0.84984522  0.57537646  0.89977965
   0.84984522  0.82537646  0.39977965
   0.84984522  0.82537646  0.89977965
   0.15945639  0.00193194  0.13769601
   0.15945639  0.00193194  0.63769601
   0.15945639  0.25193194  0.13769601
   0.15945639  0.25193194  0.63769601
   0.15945639  0.50193194  0.13769601
   0.15945639  0.50193194  0.63769601
   0.15945639  0.75193194  0.13769601
   0.15945639  0.75193194  0.63769601
   0.40945639  0.00193194  0.13769601
   0.40945639  0.00193194  0.63769601
   0.40945639  0.25193194  0.13769601
   0.40945639  0.25193194  0.63769601
   0.40945639  0.50193194  0.13769601
   0.40945639  0.50193194  0.63769601
   0.40945639  0.75193194  0.13769601
   0.40945639  0.75193194  0.63769601
   0.65945639  0.00193194  0.13769601
   0.65945639  0.00193194  0.63769601
   0.65945639  0.25193194  0.13769601
   0.65945639  0.25193194  0.63769601
   0.65945639  0.50193194  0.13769601
   0.65945639  0.50193194  0.63769601
   0.65945639  0.75193194  0.13769601
   0.65945639  0.75193194  0.63769601
   0.90945639  0.00193194  0.13769601
   0.90945639  0.00193194  0.63769601
   0.90945639  0.25193194  0.13769601
   0.90945639  0.25193194  0.63769601
   0.90945639  0.50193194  0.13769601
   0.90945639  0.50193194  0.63769601
   0.90945639  0.75193194  0.13769601
   0.90945639  0.75193194  0.63769601
   0.09054361  0.24806806  0.36230349
   0.09054361  0.24806806  0.86230349
   0.09054361  0.49806806  0.36230349
   0.09054361  0.49806806  0.86230349
   0.09054361  0.74806806  0.36230349
   0.09054361  0.74806806  0.86230349
   0.09054361  0.99806806  0.36230349
   0.09054361  0.99806806  0.86230349
   0.34054361  0.24806806  0.36230349
   0.34054361  0.24806806  0.86230349
   0.34054361  0.49806806  0.36230349
   0.34054361  0.49806806  0.86230349
   0.34054361  0.74806806  0.36230349
   0.34054361  0.74806806  0.86230349
   0.34054361  0.99806806  0.36230349
   0.34054361  0.99806806  0.86230349
   0.59054361  0.24806806  0.36230349
   0.59054361  0.24806806  0.86230349
   0.59054361  0.49806806  0.36230349
   0.59054361  0.49806806  0.86230349
   0.59054361  0.74806806  0.36230349
   0.59054361  0.74806806  0.86230349
   0.59054361  0.99806806  0.36230349
   0.59054361  0.99806806  0.86230349
   0.84054361  0.24806806  0.36230349
   0.84054361  0.24806806  0.86230349
   0.84054361  0.49806806  0.36230349
   0.84054361  0.49806806  0.86230349
   0.84054361  0.74806806  0.36230349
   0.84054361  0.74806806  0.86230349
   0.84054361  0.99806806  0.36230349
   0.84054361  0.99806806  0.86230349
   0.19189798  0.16355138  0.26762000
   0.19189798  0.16355138  0.76762000
   0.19189798  0.41355138  0.26762000
   0.19189798  0.41355138  0.76762000
   0.19189798  0.66355138  0.26762000
   0.19189798  0.66355138  0.76762000
   0.19189798  0.91355138  0.26762000
   0.19189798  0.91355138  0.76762000
   0.44189798  0.16355138  0.26762000
   0.44189798  0.16355138  0.76762000
   0.44189798  0.41355138  0.26762000
   0.44189798  0.41355138  0.76762000
   0.44189798  0.66355138  0.26762000
   0.44189798  0.66355138  0.76762000
   0.44189798  0.91355138  0.26762000
   0.44189798  0.91355138  0.76762000
   0.69189798  0.16355138  0.26762000
   0.69189798  0.16355138  0.76762000
   0.69189798  0.41355138  0.26762000
   0.69189798  0.41355138  0.76762000
   0.69189798  0.66355138  0.26762000
   0.69189798  0.66355138  0.76762000
   0.69189798  0.91355138  0.26762000
   0.69189798  0.91355138  0.76762000
   0.94189798  0.16355138  0.26762000
   0.94189798  0.16355138  0.76762000
   0.94189798  0.41355138  0.26762000
   0.94189798  0.41355138  0.76762000
   0.94189798  0.66355138  0.26762000
   0.94189798  0.66355138  0.76762000
   0.94189798  0.91355138  0.26762000
   0.94189798  0.91355138  0.76762000
   0.05810202  0.08644862  0.23238000
   0.05810202  0.08644862  0.73238000
   0.05810202  0.33644862  0.23238000
   0.05810202  0.33644862  0.73238000
   0.05810202  0.58644862  0.23238000
   0.05810202  0.58644862  0.73238000
   0.05810202  0.83644862  0.23238000
   0.05810202  0.83644862  0.73238000
   0.30810202  0.08644862  0.23238000
   0.30810202  0.08644862  0.73238000
   0.30810202  0.33644862  0.23238000
   0.30810202  0.33644862  0.73238000
   0.30810202  0.58644862  0.23238000
   0.30810202  0.58644862  0.73238000
   0.30810202  0.83644862  0.23238000
   0.30810202  0.83644862  0.73238000
   0.55810202  0.08644862  0.23238000
   0.55810202  0.08644862  0.73238000
   0.55810202  0.33644862  0.23238000
   0.55810202  0.33644862  0.73238000
   0.55810202  0.58644862  0.23238000
   0.55810202  0.58644862  0.73238000
   0.55810202  0.83644862  0.23238000
   0.55810202  0.83644862  0.73238000
   0.80810202  0.08644862  0.23238000
   0.80810202  0.08644862  0.73238000
   0.80810202  0.33644862  0.23238000
   0.80810202  0.33644862  0.73238000
   0.80810202  0.58644862  0.23238000
   0.80810202  0.58644862  0.73238000
   0.80810202  0.83644862  0.23238000
   0.80810202  0.83644862  0.73238000
   0.13984255  0.09232826  0.05937004
   0.13984255  0.09232826  0.55937004
   0.13984255  0.34232826  0.05937004
   0.13984255  0.34232826  0.55937004
   0.13984255  0.59232826  0.05937004
   0.13984255  0.59232826  0.55937004
   0.13984255  0.84232826  0.05937004
   0.13984255  0.84232826  0.55937004
   0.38984255  0.09232826  0.05937004
   0.38984255  0.09232826  0.55937004
   0.38984255  0.34232826  0.05937004
   0.38984255  0.34232826  0.55937004
   0.38984255  0.59232826  0.05937004
   0.38984255  0.59232826  0.55937004
   0.38984255  0.84232826  0.05937004
   0.38984255  0.84232826  0.55937004
   0.63984255  0.09232826  0.05937004
   0.63984255  0.09232826  0.55937004
   0.63984255  0.34232826  0.05937004
   0.63984255  0.34232826  0.55937004
   0.63984255  0.59232826  0.05937004
   0.63984255  0.59232826  0.55937004
   0.63984255  0.84232826  0.05937004
   0.63984255  0.84232826  0.55937004
   0.88984255  0.09232826  0.05937004
   0.88984255  0.09232826  0.55937004
   0.88984255  0.34232826  0.05937004
   0.88984255  0.34232826  0.55937004
   0.88984255  0.59232826  0.05937004
   0.88984255  0.59232826  0.55937004
   0.88984255  0.84232826  0.05937004
   0.88984255  0.84232826  0.55937004
   0.11015745  0.15767174  0.44062996
   0.11015745  0.15767174  0.94062996
   0.11015745  0.40767174  0.44062996
   0.11015745  0.40767174  0.94062996
   0.11015745  0.65767174  0.44062996
   0.11015745  0.65767174  0.94062996
   0.11015745  0.90767174  0.44062996
   0.11015745  0.90767174  0.94062996
   0.36015745  0.15767174  0.44062996
   0.36015745  0.15767174  0.94062996
   0.36015745  0.40767174  0.44062996
   0.36015745  0.40767174  0.94062996
   0.36015745  0.65767174  0.44062996
   0.36015745  0.65767174  0.94062996
   0.36015745  0.90767174  0.44062996
   0.36015745  0.90767174  0.94062996
   0.61015745  0.15767174  0.44062996
   0.61015745  0.15767174  0.94062996
   0.61015745  0.40767174  0.44062996
   0.61015745  0.40767174  0.94062996
   0.61015745  0.65767174  0.44062996
   0.61015745  0.65767174  0.94062996
   0.61015745  0.90767174  0.44062996
   0.61015745  0.90767174  0.94062996
   0.86015745  0.15767174  0.44062996
   0.86015745  0.15767174  0.94062996
   0.86015745  0.40767174  0.44062996
   0.86015745  0.40767174  0.94062996
   0.86015745  0.65767174  0.44062996
   0.86015745  0.65767174  0.94062996
   0.86015745  0.90767174  0.44062996
   0.86015745  0.90767174  0.94062996
   0.21632592  0.07380887  0.36552792
   0.21632592  0.07380887  0.86552792
   0.21632592  0.32380887  0.36552792
   0.21632592  0.32380887  0.86552792
   0.21632592  0.57380887  0.36552792
   0.21632592  0.57380887  0.86552792
   0.21632592  0.82380887  0.36552792
   0.21632592  0.82380887  0.86552792
   0.46632592  0.07380887  0.36552792
   0.46632592  0.07380887  0.86552792
   0.46632592  0.32380887  0.36552792
   0.46632592  0.32380887  0.86552792
   0.46632592  0.57380887  0.36552792
   0.46632592  0.57380887  0.86552792
   0.46632592  0.82380887  0.36552792
   0.46632592  0.82380887  0.86552792
   0.71632592  0.07380887  0.36552792
   0.71632592  0.07380887  0.86552792
   0.71632592  0.32380887  0.36552792
   0.71632592  0.32380887  0.86552792
   0.71632592  0.57380887  0.36552792
   0.71632592  0.57380887  0.86552792
   0.71632592  0.82380887  0.36552792
   0.71632592  0.82380887  0.86552792
   0.96632592  0.07380887  0.36552792
   0.96632592  0.07380887  0.86552792
   0.96632592  0.32380887  0.36552792
   0.96632592  0.32380887  0.86552792
   0.96632592  0.57380887  0.36552792
   0.96632592  0.57380887  0.86552792
   0.96632592  0.82380887  0.36552792
   0.96632592  0.82380887  0.86552792
   0.03367408  0.17619113  0.13447208
   0.03367408  0.17619113  0.63447208
   0.03367408  0.42619113  0.13447208
   0.03367408  0.42619113  0.63447208
   0.03367408  0.67619113  0.13447208
   0.03367408  0.67619113  0.63447208
   0.03367408  0.92619113  0.13447208
   0.03367408  0.92619113  0.63447208
   0.28367408  0.17619113  0.13447208
   0.28367408  0.17619113  0.63447208
   0.28367408  0.42619113  0.13447208
   0.28367408  0.42619113  0.63447208
   0.28367408  0.67619113  0.13447208
   0.28367408  0.67619113  0.63447208
   0.28367408  0.92619113  0.13447208
   0.28367408  0.92619113  0.63447208
   0.53367408  0.17619113  0.13447208
   0.53367408  0.17619113  0.63447208
   0.53367408  0.42619113  0.13447208
   0.53367408  0.42619113  0.63447208
   0.53367408  0.67619113  0.13447208
   0.53367408  0.67619113  0.63447208
   0.53367408  0.92619113  0.13447208
   0.53367408  0.92619113  0.63447208
   0.78367408  0.17619113  0.13447208
   0.78367408  0.17619113  0.63447208
   0.78367408  0.42619113  0.13447208
   0.78367408  0.42619113  0.63447208
   0.78367408  0.67619113  0.13447208
   0.78367408  0.67619113  0.63447208
   0.78367408  0.92619113  0.13447208
   0.78367408  0.92619113  0.63447208
VO2:Mo (V126 Mo2 O256)  x(Mo)=1.56%     
           1
    14.747933   -0.000045   -4.441335
    -2.346825   25.413617   -7.787088
    -0.057439    0.208569   13.152313
   V    Mo   O 
   126     2   256
Direct configuration=     2
   0.17450731  0.07088986  0.19722107
   0.17450790  0.07089223  0.69722248
   0.17431356  0.32081268  0.19709484
   0.17431151  0.32081250  0.69708759
   0.17443646  0.57074576  0.19713693
   0.17443227  0.57074476  0.69713895
   0.17616787  0.82056446  0.19836379
   0.17615052  0.82056574  0.69839874
   0.42435532  0.07064546  0.19695919
   0.42435414  0.07064431  0.69695346
   0.42427877  0.32079456  0.19703748
   0.42427952  0.32079450  0.69704597
   0.42443383  0.57092197  0.19715364
   0.42443238  0.57092004  0.69715274
   0.42465832  0.82065634  0.19773583
   0.42465958  0.82065590  0.69770974
   0.67401602  0.07063142  0.19679593
   0.67401318  0.07062821  0.69679358
   0.67424321  0.32079270  0.19704407
   0.67424757  0.32079238  0.69704359
   0.67418394  0.57087052  0.19706118
   0.67418380  0.57086998  0.69705855
   0.67006206  0.82061250  0.19325626
   0.67006384  0.82061453  0.69323790
   0.92428032  0.07105785  0.19730316
   0.92427994  0.07105828  0.69730721
   0.92428748  0.32081738  0.19712019
   0.92428978  0.32081766  0.69711899
   0.92410027  0.57073257  0.19709658
   0.92410280  0.57073282  0.69709637
   0.92641214  0.82031884  0.19858471
   0.92642791  0.82031889  0.69855999
   0.07578577  0.17937447  0.30300706
   0.07578608  0.17937368  0.80300796
   0.07572777  0.42929516  0.30295913
   0.07572678  0.42929659  0.80295734
   0.07580589  0.67855846  0.30214208
   0.07581206  0.67858304  0.80217470
   0.07645882  0.92966749  0.30346008
   0.07645746  0.92965890  0.80346525
   0.32581589  0.17930953  0.30302753
   0.32581553  0.17931028  0.80302594
   0.32576050  0.42934378  0.30300706
   0.32576387  0.42934338  0.80300623
   0.32629504  0.67950963  0.30329505
   0.32629237  0.67950106  0.80329068
   0.32633728  0.92917037  0.30341487
   0.32633493  0.92917365  0.80340774
   0.57570233  0.17928074  0.30299134
   0.57570575  0.17928155  0.80298976
   0.57574245  0.42936381  0.30302630
   0.57574094  0.42936298  0.80303048
   0.57565175  0.67993407  0.30365304
   0.57565154  0.67992368  0.80364034
   0.57536638  0.92903162  0.30374694
   0.57536270  0.92903361  0.80372538
   0.82561506  0.17935335  0.30294059
   0.82561654  0.17935263  0.80294220
   0.82571156  0.42932618  0.30299068
   0.82570975  0.42932600  0.80298916
   0.82444959  0.67497914  0.29932140
   0.82445592  0.67498263  0.79932452
   0.82468513  0.93055951  0.30163047
   0.82468568  0.93056081  0.80163600
   0.15049196  0.17331056  0.10120709
   0.15049459  0.17331045  0.60120490
   0.15044251  0.42325178  0.10114013
   0.15044543  0.42325114  0.60113882
   0.15110879  0.67296476  0.10116154
   0.15110619  0.67296213  0.60117310
   0.15180553  0.92372941  0.10149559
   0.15180064  0.92375523  0.60149784
   0.40043550  0.17322753  0.10109171
   0.40043969  0.17322778  0.60109336
   0.40045008  0.42330056  0.10114893
   0.40045132  0.42330088  0.60114924
   0.40085751  0.67329018  0.10133128
   0.40086358  0.67328846  0.60132082
   0.40104274  0.92295697  0.10065800
   0.40105262  0.92295167  0.60064501
   0.65027856  0.17321529  0.10104681
   0.65028482  0.17321513  0.60104667
   0.65036094  0.42329246  0.10112885
   0.65036125  0.42329348  0.60112929
   0.64981074  0.67289770  0.10070799
   0.64981831  0.67289839  0.60069878
   0.64859176  0.92270079  0.09951208
   0.64858953  0.92269087  0.59949560
   0.90035400  0.17333611  0.10120218
   0.90035802  0.17333627  0.60120173
   0.90035195  0.42324996  0.10112181
   0.90035334  0.42325025  0.60112182
   0.89983944  0.67240645  0.10047336
   0.89985147  0.67240844  0.60047429
   0.90117523  0.92590122  0.10592892
   0.90116466  0.92589828  0.60592611
   0.09983601  0.07699539  0.39907832
   0.09983719  0.07699456  0.89908074
   0.09964368  0.32686707  0.39897040
   0.09964983  0.32686728  0.89897361
   0.09962997  0.57669345  0.39882596
   0.09962983  0.57669832  0.89882702
   0.10488739  0.82632469  0.40065767
   0.10482541  0.82635018  0.90055017
   0.34987808  0.07678590  0.39900319
   0.34987763  0.07678648  0.89900387
   0.34968386  0.32686052  0.39900021
   0.34967980  0.32686062  0.89899841
   0.34986529  0.57691857  0.39906607
   0.34986330  0.57691793  0.89906821
   0.35214774  0.82668505  0.39860056
   0.35217559  0.82668527  0.89863112
   0.59949681  0.07674792  0.39893154
   0.59949269  0.07674813  0.89892879
   0.59958766  0.32685248  0.39899070
   0.59959610  0.32685298  0.89898805
   0.59959967  0.57697007  0.39901601
   0.59959934  0.57696842  0.89901781
   0.59703412  0.82677587  0.39826237
   0.59705484  0.82677353  0.89825921
   0.84935882  0.07709318  0.39897411
   0.84935734  0.07709350  0.89897387
   0.84954189  0.32686176  0.39896753
   0.84955573  0.32686182  0.89896731
   0.84937594  0.57684397  0.39880938
   0.84937660  0.57684262  0.89880759
   0.84681074  0.82432592  0.39755376
   0.84681177  0.82433800  0.89758583
   0.15876023  0.00031416  0.13548513
   0.15875975  0.00030799  0.63548174
   0.15891805  0.25042251  0.13557851
   0.15891858  0.25042281  0.63558019
   0.15891512  0.50048072  0.13561151
   0.15891533  0.50048205  0.63561209
   0.15868413  0.75081401  0.13571997
   0.15868573  0.75081799  0.63572138
   0.40888432  0.00063830  0.13575060
   0.40888466  0.00064067  0.63575329
   0.40893259  0.25045535  0.13561189
   0.40893224  0.25045564  0.63561047
   0.40890084  0.50038399  0.13555253
   0.40890023  0.50038430  0.63555266
   0.40884487  0.75044093  0.13549665
   0.40884284  0.75044211  0.63550112
   0.65914619  0.00071083  0.13588703
   0.65914749  0.00071673  0.63589186
   0.65895500  0.25045674  0.13561343
   0.65895228  0.25045717  0.63561367
   0.65894597  0.50040296  0.13557200
   0.65894652  0.50040267  0.63557216
   0.65955166  0.75089564  0.13633210
   0.65955063  0.75089243  0.63633197
   0.90888838  0.00005319  0.13520877
   0.90888874  0.00005077  0.63520786
   0.90893519  0.25041199  0.13556872
   0.90893362  0.25041202  0.63556922
   0.90896492  0.50048697  0.13561852
   0.90896466  0.50048733  0.63561869
   0.90885101  0.75144592  0.13607499
   0.90884905  0.75144545  0.63607778
   0.09103055  0.24940843  0.36429785
   0.09102966  0.24941040  0.86429871
   0.09104422  0.49949616  0.36435583
   0.09104411  0.49949418  0.86435507
   0.09065078  0.75021987  0.36486394
   0.09064454  0.75018003  0.86483966
   0.09092243  0.99923263  0.36413840
   0.09092311  0.99923700  0.86413983
   0.34102838  0.24945349  0.36432076
   0.34103011  0.24945272  0.86432071
   0.34101604  0.49942048  0.36429932
   0.34101560  0.49942082  0.86429961
   0.34074003  0.74907261  0.36401988
   0.34073817  0.74908547  0.86402883
   0.34096515  0.99953816  0.36433868
   0.34096550  0.99953749  0.86433881
   0.59106022  0.24947254  0.36433707
   0.59105726  0.24947082  0.86433639
   0.59104036  0.49939131  0.36428307
   0.59104070  0.49939202  0.86428270
   0.59107624  0.74815200  0.36332684
   0.59107674  0.74816642  0.86333717
   0.59110989  0.99958729  0.36434929
   0.59111119  0.99958830  0.86435260
   0.84107222  0.24942343  0.36431624
   0.84106968  0.24942436  0.86431654
   0.84107012  0.49943834  0.36432344
   0.84107070  0.49943913  0.86432419
   0.84188860  0.75336819  0.36702615
   0.84189078  0.75335823  0.86702088
   0.84109255  0.99896413  0.36411037
   0.84109155  0.99896017  0.86410728
   0.19136556  0.16295491  0.26566521
   0.19136456  0.16295383  0.76566510
   0.19139499  0.41297317  0.26568866
   0.19139568  0.41297259  0.76568961
   0.19099763  0.66299544  0.26563573
   0.19100597  0.66299652  0.76562818
   0.19084795  0.91292475  0.26545527
   0.19085262  0.91292214  0.76545233
   0.44140526  0.16299940  0.26570241
   0.44140530  0.16300000  0.76570314
   0.44142266  0.41296774  0.26569516
   0.44142512  0.41296840  0.76569370
   0.44090725  0.66298192  0.26567784
   0.44091233  0.66298234  0.76567991
   0.44140743  0.91310252  0.26571355
   0.44140531  0.91310136  0.76571874
   0.69149017  0.16299700  0.26572956
   0.69149196  0.16299734  0.76572914
   0.69145471  0.41296931  0.26569979
   0.69145294  0.41296923  0.76569976
   0.69199486  0.66326573  0.26595888
   0.69198583  0.66326710  0.76596337
   0.69250474  0.91286626  0.26637184
   0.69251080  0.91286693  0.76637862
   0.94143426  0.16292418  0.26566600
   0.94143524  0.16292394  0.76566558
   0.94142918  0.41297635  0.26569201
   0.94142897  0.41297603  0.76569230
   0.94188241  0.66323462  0.26592769
   0.94188484  0.66323739  0.76592847
   0.94106616  0.91261622  0.26534260
   0.94106008  0.91261698  0.76534284
   0.05844519  0.08694398  0.23425836
   0.05844761  0.08694401  0.73425682
   0.05857436  0.33698431  0.23428803
   0.05857598  0.33698408  0.73428822
   0.05859125  0.58707071  0.23434649
   0.05859122  0.58706793  0.73434379
   0.05792535  0.83703003  0.23487992
   0.05790757  0.83702125  0.73479679
   0.30837484  0.08698917  0.23425703
   0.30837245  0.08698893  0.73425765
   0.30856930  0.33697827  0.23428157
   0.30856257  0.33697809  0.73428132
   0.30842311  0.58695105  0.23423408
   0.30842423  0.58695217  0.73423405
   0.30770495  0.83701248  0.23382714
   0.30770494  0.83701235  0.73383704
   0.55860912  0.08701415  0.23429733
   0.55860690  0.08701386  0.73429847
   0.55856168  0.33697773  0.23428380
   0.55856710  0.33697786  0.73428297
   0.55857598  0.58685430  0.23422198
   0.55857541  0.58685640  0.73422284
   0.55926141  0.83699689  0.23376004
   0.55925853  0.83699624  0.73377169
   0.80883876  0.08695987  0.23433756
   0.80884002  0.08695997  0.73433651
   0.80856152  0.33698150  0.23429382
   0.80856433  0.33698136  0.73429293
   0.80870522  0.58697760  0.23435331
   0.80870349  0.58697797  0.73435467
   0.80958207  0.83699738  0.23430979
   0.80958155  0.83699776  0.73431680
   0.13965029  0.09284295  0.05856847
   0.13965128  0.09284293  0.55857036
   0.13965781  0.34287883  0.05861919
   0.13966017  0.34287894  0.55862093
   0.13966258  0.59295853  0.05863409
   0.13966337  0.59295957  0.55863211
   0.13855204  0.84266161  0.05630265
   0.13850888  0.84264801  0.55613297
   0.38965115  0.09291178  0.05860667
   0.38965123  0.09291181  0.55860635
   0.38966020  0.34287290  0.05861365
   0.38965633  0.34287305  0.55861169
   0.38961605  0.59285864  0.05857839
   0.38961737  0.59285905  0.55858013
   0.38956772  0.84307699  0.05888832
   0.38957637  0.84307979  0.55891258
   0.63967624  0.09292631  0.05865078
   0.63967575  0.09292694  0.55865086
   0.63967313  0.34287787  0.05862011
   0.63967639  0.34287773  0.55861813
   0.63970014  0.59287857  0.05868752
   0.63970011  0.59287880  0.55868996
   0.64072138  0.84325035  0.06137861
   0.64073206  0.84325557  0.56141213
   0.88968096  0.09281531  0.05861950
   0.88968108  0.09281547  0.55862007
   0.88968218  0.34288103  0.05861727
   0.88968502  0.34288060  0.55861622
   0.88975805  0.59299231  0.05876961
   0.88975757  0.59299132  0.55876915
   0.88979197  0.84238340  0.05852237
   0.88979527  0.84238599  0.55853413
   0.11028978  0.15702180  0.44130729
   0.11029053  0.15702194  0.94130626
   0.11032170  0.40706585  0.44133476
   0.11032335  0.40706459  0.94133431
   0.11026888  0.65724241  0.44126463
   0.11027065  0.65723608  0.94127411
   0.11015657  0.90721752  0.44146278
   0.11014855  0.90721149  0.94144960
   0.36030675  0.15708620  0.44134072
   0.36030691  0.15708559  0.94134096
   0.36031788  0.40705007  0.44132905
   0.36031588  0.40705006  0.94132843
   0.36027974  0.65700939  0.44128221
   0.36028060  0.65700997  0.94127697
   0.36022655  0.90741818  0.44157517
   0.36022509  0.90741269  0.94156965
   0.61035370  0.15709690  0.44136610
   0.61035495  0.15709625  0.94136623
   0.61032261  0.40704882  0.44134036
   0.61032426  0.40704971  0.94134034
   0.61045122  0.65699136  0.44163154
   0.61045031  0.65699151  0.94162507
   0.61077743  0.90802221  0.44193946
   0.61077933  0.90801323  0.94194366
   0.86034012  0.15700252  0.44133116
   0.86034141  0.15700294  0.94133200
   0.86032128  0.40706356  0.44135191
   0.86032237  0.40706307  0.94135169
   0.86056193  0.65727559  0.44227419
   0.86056141  0.65727645  0.94227178
   0.86034349  0.90751913  0.44118036
   0.86034390  0.90751821  0.94117671
   0.21650873  0.07389258  0.36700804
   0.21650618  0.07389280  0.86700600
   0.21666219  0.32390340  0.36705182
   0.21666491  0.32390489  0.86704438
   0.21651277  0.57391500  0.36702620
   0.21651523  0.57391474  0.86702493
   0.21506594  0.82386755  0.36569993
   0.21501136  0.82386990  0.86572734
   0.46665465  0.07392516  0.36710721
   0.46665918  0.07392556  0.86710696
   0.46671039  0.32391243  0.36702994
   0.46671249  0.32391053  0.86704089
   0.46663579  0.57389122  0.36705107
   0.46663786  0.57389130  0.86704988
   0.46362801  0.82384546  0.36647379
   0.46365680  0.82384895  0.86648187
   0.71703036  0.07390102  0.36716008
   0.71703340  0.07390066  0.86716311
   0.71681107  0.32390993  0.36704205
   0.71679644  0.32391042  0.86704099
   0.71687702  0.57390422  0.36706086
   0.71687789  0.57390445  0.86706057
   0.72049058  0.82373351  0.36757488
   0.72043062  0.82373649  0.86757747
   0.96668379  0.07386353  0.36696416
   0.96668424  0.07386320  0.86696451
   0.96677584  0.32389761  0.36707931
   0.96676264  0.32389784  0.86707893
   0.96684207  0.57392022  0.36708930
   0.96684032  0.57391994  0.86709020
   0.96469457  0.82367880  0.36617102
   0.96480329  0.82368208  0.86620940
   0.03325550  0.17605757  0.13291104
   0.03325372  0.17605729  0.63291262
   0.03328300  0.42607441  0.13292348
   0.03328154  0.42607455  0.63292340
   0.03320237  0.67624262  0.13318691
   0.03319884  0.67624162  0.63316888
   0.03236770  0.92584685  0.13234550
   0.03237294  0.92584513  0.63234652
   0.28318669  0.17606678  0.13290592
   0.28318328  0.17606704  0.63290534
   0.28320393  0.42606591  0.13290818
   0.28319955  0.42606652  0.63290695
   0.28266472  0.67608508  0.13284418
   0.28265626  0.67608589  0.63284622
   0.28220061  0.92604913  0.13279117
   0.28219137  0.92604784  0.63278948
   0.53328207  0.17607544  0.13292862
   0.53327644  0.17607587  0.63292683
   0.53325702  0.42605765  0.13292309
   0.53325750  0.42605675  0.63292593
   0.53323174  0.67609131  0.13259236
   0.53322578  0.67609112  0.63260139
   0.53294039  0.92616424  0.13303760
   0.53293151  0.92616681  0.63303985
   0.78338920  0.17606655  0.13294122
   0.78338291  0.17606631  0.63294196
   0.78332909  0.42606345  0.13294011
   0.78332973  0.42606368  0.63293856
   0.78365448  0.67640225  0.13272973
   0.78364527  0.67640151  0.63273261
   0.78501865  0.92594779  0.13272473
   0.78503560  0.92594981  0.63273075
VO2:Mo (V126 Mo2 O256)  x(Mo)=1.56%     
           1
    14.402493    0.000430   -4.336924
    -2.288264   24.858200   -7.594887
    -0.067278    0.196351   12.806020
   V    Mo   O 
   126     2   256
Direct configuration=     3
   0.17431596  0.07031435  0.19685231
   0.17431624  0.07031546  0.69685298
   0.17422515  0.32027829  0.19679292